ITEM: TIMESTEP
0
ITEM: NUMBER OF ATOMS
   9160
ITEM: BOX BOUNDS pp pp pp
  -22.269199   24.986900
  -22.224800   24.988098
  -66.464401  -15.002998
ITEM: ATOMS id type x y z ln
      1  1  -21.533300  -22.158300  -63.339901 1
      2  1  -16.657101  -21.006100  -65.473099 1
      3  2  -18.229200  -20.152700  -66.059799 0
      4  2  -15.532800  -19.694500  -64.912399 0
      5  2  -11.127400  -20.333200  -63.752499 0
      6  1   -9.600810  -19.431499  -64.519699 2
      7  1  -12.480000  -21.803301  -66.453102 1
      8  2   -8.734700  -21.065399  -63.758999 0
      9  2   -9.505320  -19.973301  -66.388397 0
     10  2  -20.407900  -18.961599  -64.659698 0
     11  2  -20.754000  -16.015800  -65.923203 0
     12  1  -20.850599  -17.978800  -66.427597 2
     13  1  -18.885599  -18.549000  -63.848202 1
     14  2  -17.809500  -17.081499  -64.579102 0
     15  1  -18.052099  -16.343599  -66.387802 1
     16  1  -13.925300  -18.798700  -65.997803 1
     17  2  -13.346300  -18.075199  -64.265099 0
     18  1  -12.244100  -16.642799  -63.991699 1
     19  2  -10.418200  -17.645000  -64.630600 0
     20  1   -9.607330  -16.250500  -65.978203 1
     21  2   -7.679280  -18.656200  -64.093697 0
     22  1   -6.766190  -17.973400  -65.844200 1
     23  1  -19.936800  -14.658300  -64.636101 1
     24  2  -21.287399  -13.337400  -65.303902 0
     25  2  -18.398399  -14.595600  -65.739304 0
     26  1  -17.422899  -12.913100  -65.808502 1
     27  2  -15.448600  -15.569100  -64.027901 0
     28  1  -14.815700  -15.485500  -65.835503 2
     29  2  -12.886900  -15.324200  -65.148499 0
     30  2  -14.749300  -13.604400  -66.438400 0
     31  1  -11.666500  -13.806700  -65.215202 1
     32  2  -10.261700  -14.546200  -66.298500 0
     33  2  -10.623600  -13.695700  -63.583099 0
     34  2   -8.567600  -15.739200  -64.280098 0
     35  1  -19.494101  -11.606700  -63.640099 1
     36  2  -21.006800  -10.596400  -63.420200 0
     37  2  -18.986099  -11.831600  -65.462502 0
     38  2  -16.097700  -12.297300  -64.623596 0
     39  1  -14.308200  -11.822800  -65.213501 2
     40  2  -14.531700  -10.230800  -66.326202 0
     41  2  -14.413500  -10.688000  -63.584999 0
     42  1  -11.299000  -10.781300  -66.157204 2
     43  2  -12.442100  -11.988900  -65.351799 0
     44  2   -9.690880  -11.929100  -66.063004 0
     45  2   -9.692680  -10.640800  -63.601101 0
     46  2   -7.733180  -12.735500  -63.823700 0
     47  1   -8.468120  -11.198800  -64.927902 1
     48  2   -7.181620  -10.325100  -65.877197 0
     49  1  -21.116100   -9.514120  -65.147697 1
     50  2  -19.336901   -8.925630  -65.346703 0
     51  2  -16.254299   -8.382500  -64.295700 0
     52  1  -18.069201   -8.720240  -63.878101 2
     53  1  -15.590600   -8.700610  -66.010300 2
     54  2  -14.091600   -7.505110  -65.923698 0
     55  1  -12.946700   -7.126340  -64.434601 1
     56  1  -10.196700   -8.748300  -63.849800 2
     57  2  -10.358300   -9.069490  -65.830200 0
     58  2  -12.126000   -8.699450  -63.894798 0
     59  2   -6.721620   -8.665110  -63.590599 0
     60  2   -9.069260   -7.308900  -63.799198 0
     61  2  -21.791500  -20.441200  -62.491299 0
     62  1  -21.525801  -20.969200  -60.617100 1
     63  2  -19.293600  -21.102200  -61.170700 0
     64  1  -18.975300  -19.258200  -60.893002 1
     65  2  -17.681400  -19.917801  -63.114799 0
     66  1  -18.257900  -21.732500  -62.828499 3
     67  2  -13.942400  -20.549200  -63.030998 0
     68  2  -15.484500  -20.702999  -61.150200 0
     69  1  -15.714800  -19.705400  -62.880501 1
     70  1  -10.209000  -21.944599  -62.723301 2
     71  1  -12.533300  -19.396799  -63.130199 1
     72  2   -9.863350  -20.648399  -61.241901 0
     73  1   -6.706640  -20.233999  -63.164398 2
     74  2   -6.872070  -20.663900  -61.428699 0
     75  1   -8.238820  -21.367100  -60.555000 1
     76  2  -19.290899  -17.842199  -62.056301 0
     77  1  -20.076500  -16.029900  -61.578400 1
     78  2  -21.458599  -16.737301  -60.426601 0
     79  1  -16.895000  -16.427099  -63.103100 1
     80  1  -16.202400  -17.627701  -60.492599 1
     81  2  -16.059099  -17.920799  -62.299099 0
     82  1  -13.119600  -16.828899  -60.915501 1
     83  1  -10.394600  -18.934900  -60.846901 1
     84  2  -12.045500  -18.457899  -61.555000 0
     85  1   -8.065040  -16.976601  -63.044102 2
     86  2   -9.258870  -17.528700  -61.588902 0
     87  2   -6.745080  -16.633900  -61.719101 0
     88  1   -8.088970  -16.339500  -60.362598 2
     89  2  -20.823900  -15.559000  -63.225399 0
     90  2  -19.792601  -14.615500  -60.292500 0
     91  2  -19.271999  -13.339800  -63.160801 0
     92  2  -17.951401  -15.595200  -61.869701 0
     93  1  -18.025499  -13.796100  -61.530899 1
     94  2  -16.251600  -13.181000  -61.963100 0
     95  2  -13.538300  -13.250800  -62.967899 0
     96  2  -14.647800  -15.483800  -61.165001 0
     97  1  -14.944600  -14.321900  -62.752602 1
     98  2  -12.267700  -15.860300  -62.307499 0
     99  1  -11.939000  -14.004600  -62.241402 1
    100  2  -12.137600  -13.568500  -60.451599 0
    101  1   -8.797480  -14.222100  -63.245399 1
    102  2   -8.692250  -14.630900  -61.420799 0
    103  1   -7.718360  -13.302900  -60.321800 2
    104  1  -20.569901  -12.639500  -60.363602 2
    105  2  -21.834801  -12.652700  -61.760899 0
    106  1  -22.073000  -10.519600  -61.803699 2
    107  2  -21.044901  -10.775200  -60.241100 0
    108  2  -18.044500  -10.568800  -62.963600 0
    109  2  -18.660999  -12.164200  -60.704300 0
    110  1  -16.087601  -11.343500  -62.905102 2
    111  1  -17.813499  -10.635900  -60.857800 2
    112  2  -15.999900  -10.688900  -61.142300 0
    113  1  -12.893800  -10.041500  -62.825001 1
    114  2  -11.725100  -11.231000  -61.882999 0
    115  1   -9.920320  -10.726900  -61.793400 2
    116  1  -12.383100  -11.748100  -60.297600 1
    117  2   -9.246000  -11.940700  -60.608299 0
    118  2  -21.936300   -8.720650  -61.685001 0
    119  2  -17.764099   -7.292810  -62.568699 0
    120  2  -13.372800   -9.198230  -61.219299 0
    121  1  -13.777900   -7.281510  -61.190102 2
    122  2  -15.623700   -8.058030  -60.418999 0
    123  2  -14.325600   -6.821930  -63.060799 0
    124  1  -10.420800   -7.705490  -60.465801 2
    125  2   -9.957710   -8.851000  -61.788799 0
    126  2  -11.991200   -6.831460  -61.134800 0
    127  1   -7.438450   -7.120100  -62.922798 1
    128  2   -7.233290   -7.060770  -61.095100 0
    129  2  -20.763201  -22.051100  -59.066399 0
    130  2  -19.411900  -19.435699  -57.218300 0
    131  2  -20.537100  -19.427099  -59.827599 0
    132  1  -17.586500  -19.727800  -58.102299 2
    133  2  -17.860701  -21.547701  -58.527699 0
    134  2  -15.630300  -20.041201  -57.941601 0
    135  1  -14.583900  -19.994200  -59.517700 1
    136  2  -12.901700  -20.759899  -59.089802 0
    137  1  -11.825500  -20.486401  -57.507401 2
    138  2  -10.926600  -22.201099  -58.149899 0
    139  2   -8.197600  -21.119600  -58.792301 0
    140  1   -8.500780  -19.322500  -58.451900 1
    141  2  -19.781700  -16.842501  -58.179100 0
    142  1  -20.993700  -17.913500  -59.020599 1
    143  2  -17.473000  -18.966000  -59.857399 0
    144  2  -16.147400  -16.285999  -59.034000 0
    145  1  -15.932000  -16.909500  -57.250599 1
    146  2  -14.435000  -18.166000  -60.165798 0
    147  2  -10.339600  -18.991501  -58.965900 0
    148  1  -10.786500  -17.064400  -58.623402 1
    149  2  -12.378700  -16.233400  -59.251598 0
    150  2   -7.390200  -18.155600  -59.382999 0
    151  2   -9.468320  -16.095800  -59.159199 0
    152  2  -22.025400  -15.168300  -57.358200 0
    153  1  -20.492399  -14.954000  -58.404900 2
    154  2  -20.979401  -13.018800  -58.601101 0
    155  2  -16.967100  -13.532400  -59.275200 0
    156  1  -17.423300  -14.044400  -57.620701 1
    157  1  -15.515400  -14.656500  -59.715500 1
    158  2  -14.291200  -13.855300  -58.583302 0
    159  1  -12.521100  -14.381200  -58.588100 1
    160  2  -11.184100  -13.299500  -57.795601 0
    161  2   -6.846880  -14.961300  -59.489201 0
    162  1   -7.742740  -14.277600  -57.418800 1
    163  2   -8.363630  -12.948400  -58.576599 0
    164  2  -21.619301  -10.382400  -57.363899 0
    165  2  -19.061600   -9.961150  -57.531502 0
    166  2  -16.120300  -10.508500  -58.580700 0
    167  2  -14.108300  -11.403200  -59.601501 0
    168  1  -15.074300  -12.058000  -58.095501 2
    169  2  -11.295700  -10.730800  -59.105999 0
    170  1   -9.809750  -11.874200  -58.550201 2
    171  2   -9.296080  -10.756200  -57.032600 0
    172  1  -20.233000   -9.583370  -59.080002 1
    173  2  -21.255301   -8.126100  -58.608799 0
    174  1  -17.376200   -7.730800  -60.114799 1
    175  2  -18.567499   -9.206680  -60.116901 0
    176  1  -17.248199   -9.508330  -57.501598 1
    177  2  -17.234100   -7.674850  -58.161499 0
    178  1  -14.845600   -9.705010  -59.856300 2
    179  2  -13.647600   -8.610130  -58.450901 0
    180  1  -11.970400   -9.341400  -58.143002 1
    181  2  -10.656500   -8.010460  -58.603001 0
    182  1   -6.664760   -8.633780  -60.049301 1
    183  1   -8.742060   -9.003380  -57.500000 1
    184  2   -8.226260   -9.085290  -59.320099 0
    185  2  -22.129000  -20.999701  -56.709599 0
    186  1  -20.287901  -20.750200  -56.349400 1
    187  2  -20.341000  -20.422300  -54.513599 0
    188  2  -16.648600  -21.772600  -55.681400 0
    189  2  -15.379400  -19.478399  -54.717201 0
    190  1  -15.112800  -20.698000  -56.278099 1
    191  2  -13.328000  -21.039499  -56.233299 0
    192  1  -12.159400  -20.893900  -54.573101 2
    193  2  -10.907200  -20.215099  -55.816700 0
    194  2  -19.649900  -17.390699  -54.928902 0
    195  2  -17.201599  -18.226999  -56.871300 0
    196  1  -19.083900  -17.619499  -56.656399 2
    197  2  -14.369000  -17.536200  -56.662201 0
    198  1  -14.696700  -17.761499  -54.811501 1
    199  2  -13.019700  -17.181601  -54.368000 0
    200  2  -11.441300  -17.659100  -56.947399 0
    201  1  -12.476500  -16.392700  -55.981098 1
    202  1  -10.137500  -18.465099  -55.895599 1
    203  2  -10.150000  -17.857800  -54.155899 0
    204  2   -8.399140  -18.890900  -56.568199 0
    205  1   -7.347860  -17.395300  -56.034199 1
    206  2   -7.811230  -16.689501  -54.419399 0
    207  2  -19.086800  -14.502000  -57.002300 0
    208  1  -19.567600  -13.536000  -55.547501 2
    209  2  -20.839199  -14.455500  -54.550701 0
    210  2  -16.488300  -15.286300  -56.440498 0
    211  1  -16.409901  -14.946200  -54.584499 1
    212  2  -18.341101  -14.515200  -54.159000 0
    213  2  -14.786400  -13.997500  -54.307400 0
    214  1  -13.536500  -13.330600  -55.483799 1
    215  2  -13.037300  -14.735000  -56.614601 0
    216  1  -10.525200  -13.694500  -56.071999 1
    217  2  -10.605700  -15.539000  -55.545601 0
    218  1   -9.617230  -15.866300  -53.942600 1
    219  2   -7.818790  -15.961200  -57.006901 0
    220  2   -8.705660  -13.513400  -55.789200 0
    221  2  -21.599800  -10.796400  -54.645100 0
    222  1  -20.237200  -10.218500  -55.874199 1
    223  2  -19.039499  -11.707600  -55.348400 0
    224  2  -16.516899  -12.610400  -56.827599 0
    225  1  -17.125500  -11.644600  -55.319801 1
    226  2  -16.873899   -9.798210  -55.473900 0
    227  2  -13.915600  -11.758700  -56.576401 0
    228  1  -13.629600  -10.177900  -55.638401 1
    229  2  -13.720800  -11.173900  -53.996399 0
    230  2  -11.715100  -12.888100  -54.871899 0
    231  2   -9.380820  -10.269600  -54.180099 0
    232  1   -8.510270  -11.607900  -55.417801 2
    233  2   -6.652360  -11.337700  -55.731300 0
    234  2  -19.925699   -8.445580  -55.118900 0
    235  1  -20.759300   -6.995150  -56.088402 1
    236  1  -16.084999   -8.328900  -54.551201 1
    237  1  -13.802800   -7.297670  -57.023800 1
    238  2  -14.519900   -8.489450  -55.800701 0
    239  2  -11.976800   -9.768370  -56.299599 0
    240  1  -10.636500   -9.201590  -55.026402 1
    241  2  -11.843600   -8.465720  -53.925301 0
    242  2   -9.673960   -7.980020  -56.150398 0
    243  2   -7.041830   -8.498360  -56.622700 0
    244  2  -21.796700  -21.469200  -51.805099 0
    245  1  -21.827200  -20.907600  -53.578400 1
    246  1  -20.356199  -20.652399  -50.896301 1
    247  2  -20.647900  -19.198200  -52.163300 0
    248  2  -17.765301  -19.242399  -53.192200 0
    249  2  -16.047400  -21.797199  -52.806702 0
    250  2  -18.987600  -21.871500  -50.760101 0
    251  1  -15.087800  -20.259199  -53.106701 1
    252  2  -13.075400  -20.364401  -52.932201 0
    253  1  -12.611000  -20.591700  -51.129398 1
    254  1  -10.034900  -22.069000  -52.331402 2
    255  2   -9.248550  -20.327499  -52.069801 0
    256  1   -7.017110  -20.809401  -52.404800 2
    257  2   -6.911050  -19.146601  -53.484600 0
    258  2  -21.520201  -16.628099  -52.903599 0
    259  1  -21.176500  -17.626200  -51.269901 1
    260  1  -19.443800  -18.924999  -53.594299 1
    261  2  -15.969400  -16.640400  -53.850800 0
    262  2  -18.709801  -16.724899  -52.540298 0
    263  1  -16.882601  -17.827299  -52.444199 2
    264  2  -16.998400  -17.105900  -50.770699 0
    265  1  -18.595301  -16.062901  -50.750198 2
    266  2  -15.163300  -18.671101  -51.991600 0
    267  2  -13.652800  -16.348400  -51.323200 0
    268  1  -12.398100  -16.620701  -52.702000 1
    269  2  -11.346800  -17.823400  -51.727699 0
    270  1   -9.750070  -18.573900  -52.447498 1
    271  2   -8.456610  -17.446501  -51.687302 0
    272  1   -6.995130  -17.360701  -52.897499 1
    273  1  -19.910299  -15.860400  -53.757599 2
    274  2  -19.376801  -14.318300  -51.368900 0
    275  1  -18.307899  -13.284800  -52.570400 2
    276  2  -16.460300  -13.759600  -51.654301 0
    277  2  -13.428000  -13.488600  -52.025700 0
    278  2  -11.216600  -15.255000  -52.908100 0
    279  1  -11.750600  -13.460300  -52.990398 1
    280  2   -8.492610  -15.048200  -52.626202 0
    281  1   -7.241140  -13.817400  -53.056198 1
    282  1   -8.675310  -15.795800  -50.759201 1
    283  2  -22.187000  -12.720000  -51.874401 0
    284  1  -21.444000  -11.174800  -52.870300 3
    285  2  -19.674299  -11.826400  -52.262699 0
    286  1  -19.504601  -10.129100  -50.937099 2
    287  2  -21.361200   -9.809090  -51.520100 0
    288  2  -16.779900  -12.228900  -53.579201 0
    289  1  -15.112900  -12.741100  -52.824100 2
    290  2  -14.908200  -11.333200  -51.492199 0
    291  1  -13.838900  -10.101800  -52.461800 1
    292  2  -10.751800  -12.400400  -51.898701 0
    293  1   -9.283220  -11.340300  -52.406601 2
    294  2   -8.070260  -12.227300  -53.459000 0
    295  2  -20.540199   -7.281100  -52.376900 0
    296  1  -19.144199   -8.064320  -53.455299 1
    297  1  -21.703600   -8.106360  -50.901001 2
    298  2  -16.715500   -6.832810  -50.945099 0
    299  2  -17.469999   -7.396610  -53.623100 0
    300  2  -18.315001   -9.349140  -52.220299 0
    301  1  -16.717199   -8.532690  -51.705002 2
    302  2  -15.239100   -8.800570  -52.951698 0
    303  2  -12.668100   -9.028660  -51.431702 0
    304  1  -12.008000   -7.464690  -52.357601 1
    305  2   -8.595110   -7.029580  -53.606201 0
    306  2   -9.210190   -9.512310  -51.726601 0
    307  2   -7.116310   -7.429280  -51.415401 0
    308  1   -8.028510   -8.599630  -52.819000 2
    309  2  -20.937000  -19.794800  -49.390800 0
    310  1  -17.389601  -21.292601  -49.667999 2
    311  2  -18.279600  -19.414301  -49.638199 0
    312  2  -16.038700  -20.078300  -48.800701 0
    313  2  -18.420500  -22.108400  -48.174198 0
    314  2  -13.847500  -21.884800  -50.681999 0
    315  2  -12.876900  -19.145399  -49.997799 0
    316  2  -11.115800  -21.619600  -50.661400 0
    317  2  -12.693500  -21.541000  -48.329700 0
    318  2   -7.341370  -21.178801  -50.530998 0
    319  1   -9.209250  -20.636499  -49.936401 2
    320  2   -9.518050  -22.074200  -48.712601 0
    321  2  -21.174999  -17.787001  -47.852501 0
    322  2  -20.061600  -16.921400  -50.047798 0
    323  1  -19.635900  -18.633499  -48.504799 2
    324  2  -18.140900  -17.602400  -47.712601 0
    325  1  -16.930700  -18.301001  -49.094799 2
    326  1  -14.304400  -17.961901  -50.524700 1
    327  2  -15.182500  -17.502100  -48.949699 0
    328  1  -14.045700  -16.174700  -48.073799 2
    329  2   -9.880340  -19.064301  -49.131401 0
    330  2  -12.363800  -16.778299  -48.720001 0
    331  1  -11.247600  -17.953600  -49.778000 2
    332  2  -10.075100  -16.369801  -49.589699 0
    333  2   -6.849290  -16.473801  -50.061298 0
    334  1   -6.856400  -17.128099  -48.361401 2
    335  1  -20.517700  -12.963400  -50.704399 2
    336  2  -21.443300  -13.703500  -49.190498 0
    337  2  -17.927900  -14.995700  -49.193199 0
    338  1  -16.434000  -13.969100  -49.712799 1
    339  1  -13.450600  -14.574300  -50.521900 1
    340  2  -14.731200  -14.700300  -49.212502 0
    341  2  -10.672500  -13.300300  -48.038700 0
    342  1  -11.215300  -15.241800  -48.473801 2
    343  2  -11.748900  -14.184100  -50.043800 0
    344  2   -8.754470  -13.979200  -50.121300 0
    345  2  -19.430700  -11.641400  -49.768200 0
    346  2  -18.075199   -9.816170  -47.669102 0
    347  1  -18.311399  -11.675700  -48.151199 1
    348  2  -16.516500  -12.158300  -48.761799 0
    349  1  -15.432000  -10.807400  -49.664200 1
    350  2  -13.703500  -10.523200  -49.076698 0
    351  1  -12.048900  -10.873800  -47.727200 2
    352  1  -10.353000  -12.851400  -50.006901 2
    353  2  -11.016300  -11.015600  -49.404499 0
    354  1   -7.244050  -12.627100  -49.811401 2
    355  2   -8.751740  -11.618800  -50.548901 0
    356  2   -7.784640  -12.131100  -47.924301 0
    357  1   -7.071110  -10.322700  -48.122002 2
    358  1  -19.158400   -8.034350  -48.266201 1
    359  2  -19.808599   -8.585000  -49.837799 0
    360  1  -22.118601   -7.438330  -48.008099 2
    361  2  -16.344200   -9.179340  -49.947300 0
    362  2  -17.590500   -6.969980  -48.263199 0
    363  1  -15.832000   -7.270370  -49.142601 2
    364  2  -13.930400   -7.346220  -49.578701 0
    365  1  -12.850900   -8.780840  -49.578400 2
    366  2  -11.043000   -8.132020  -49.657001 0
    367  1   -9.844460   -9.543130  -49.958401 1
    368  2   -8.527260   -9.129370  -48.623600 0
    369  1  -21.376101  -19.566099  -45.760899 1
    370  2  -19.758600  -19.816601  -46.662201 0
    371  1  -18.692400  -21.325001  -46.531601 1
    372  2  -17.023399  -20.666201  -45.723499 0
    373  1  -15.708500  -20.397600  -47.051102 1
    374  2  -14.032200  -19.363600  -46.600601 0
    375  2  -15.043600  -22.183800  -47.085800 0
    376  1  -12.450200  -20.518700  -46.738701 2
    377  2  -12.114500  -21.650600  -45.305000 0
    378  2  -11.250900  -19.131500  -46.454300 0
    379  2   -8.143610  -20.225201  -47.016399 0
    380  1   -6.589200  -19.358601  -46.322601 1
    381  1   -8.301300  -22.111300  -47.201698 1
    382  1  -21.614201  -16.590401  -46.419800 1
    383  2  -21.472099  -17.842501  -45.066700 0
    384  1  -14.352500  -17.916800  -45.430099 1
    385  2  -15.067500  -16.512699  -46.395302 0
    386  2  -15.822600  -18.717400  -44.535198 0
    387  2  -12.673700  -17.211201  -45.000900 0
    388  1   -9.537970  -18.925200  -47.211399 1
    389  2  -10.141800  -16.525600  -44.472599 0
    390  2   -8.115990  -17.709499  -46.815800 0
    391  2   -6.376200  -18.562000  -44.650398 0
    392  2  -20.321199  -15.260100  -46.649799 0
    393  1  -21.114201  -13.565000  -47.294498 1
    394  1  -18.852301  -13.364200  -45.259998 2
    395  2  -17.568399  -14.627600  -46.117001 0
    396  1  -18.454201  -15.685700  -47.402599 1
    397  1  -15.928300  -15.121400  -45.364101 1
    398  2  -14.674400  -13.776600  -45.100101 0
    399  1  -13.045500  -13.392400  -46.122200 2
    400  2  -12.781000  -14.963400  -47.151100 0
    401  2  -10.292600  -15.799500  -46.815399 0
    402  1  -11.716400  -15.758800  -45.434399 2
    403  2  -11.786900  -13.930900  -44.776299 0
    404  1   -8.594740  -15.905900  -46.027500 2
    405  2   -8.838640  -13.757500  -45.588902 0
    406  2   -7.164150  -15.570900  -47.334400 0
    407  2   -7.445930  -15.687300  -44.596001 0
    408  2  -19.388399  -12.685000  -47.013000 0
    409  2  -18.246599  -11.711200  -44.555099 0
    410  2  -15.813300  -10.544600  -45.585098 0
    411  2  -13.207500  -11.753200  -46.749100 0
    412  2  -10.318900  -10.994300  -46.483398 0
    413  1  -10.021900  -10.007900  -44.980099 2
    414  1   -9.384990  -12.587500  -46.882801 1
    415  2   -6.541900  -10.197700  -46.236000 0
    416  1  -21.370001   -8.268250  -44.855999 2
    417  2  -20.411600   -7.233780  -47.174000 0
    418  2  -19.720699   -9.112060  -44.553001 0
    419  2  -17.325300   -7.983120  -45.603901 0
    420  1  -16.613600   -9.292750  -46.590599 1
    421  1  -13.607000   -7.915460  -46.648102 1
    422  2  -13.942300   -8.177060  -44.759102 0
    423  2  -15.324700   -8.129320  -47.427601 0
    424  2  -10.030700   -7.848210  -46.239498 0
    425  2  -12.303700   -8.955480  -47.560001 0
    426  2   -7.346720   -7.396390  -46.229198 0
    427  1   -6.987730   -8.871440  -44.970501 1
    428  1   -8.685810   -7.665950  -47.495602 1
    429  2  -21.422001  -20.788601  -44.338799 0
    430  1  -20.591600  -20.342699  -42.646301 1
    431  2  -19.792101  -21.885700  -42.146301 0
    432  2  -22.113400  -20.419001  -41.428101 0
    433  1  -16.421600  -20.710501  -43.888000 2
    434  2  -16.663700  -19.705999  -42.160400 0
    435  2  -14.798800  -21.652000  -44.198502 0
    436  1  -13.071100  -21.284599  -43.650799 1
    437  2  -12.745500  -19.496401  -43.395699 0
    438  2   -9.934390  -19.666401  -44.153500 0
    439  2   -7.136270  -21.276600  -43.616699 0
    440  1   -9.044740  -21.178400  -43.973499 1
    441  1  -21.747000  -17.489000  -43.147900 1
    442  2  -20.337099  -18.535801  -42.461498 0
    443  2  -19.714500  -16.038099  -41.370998 0
    444  2  -17.899599  -17.381300  -42.516701 0
    445  1  -16.134199  -17.917999  -42.873299 2
    446  2  -14.619900  -17.378700  -42.094700 0
    447  1  -12.971200  -18.298401  -41.700001 2
    448  1  -11.244900  -18.424601  -44.253300 2
    449  2  -11.439800  -17.495600  -42.448002 0
    450  2   -7.679800  -19.016800  -42.115398 0
    451  2  -21.835300  -15.636200  -43.373199 0
    452  1  -20.759501  -14.179900  -42.958302 2
    453  2  -18.982401  -14.580200  -43.692699 0
    454  2  -15.977400  -15.650700  -43.581799 0
    455  1  -18.001101  -15.535500  -42.497002 2
    456  1  -15.057200  -15.383700  -41.798100 2
    457  2  -13.746200  -14.053300  -42.139900 0
    458  1  -10.335400  -15.983800  -42.563301 2
    459  2  -10.338500  -14.169900  -42.353901 0
    460  1   -7.305030  -13.618100  -44.438400 2
    461  2   -7.382020  -14.124100  -42.579201 0
    462  2  -20.730600  -12.824600  -44.435501 0
    463  2  -21.858400  -10.383400  -44.373001 0
    464  1  -19.926399  -11.029300  -43.863499 2
    465  2  -19.891399  -10.971000  -42.029701 0
    466  1  -16.670601  -10.921400  -44.017700 1
    467  1  -14.205600  -12.851500  -43.515202 1
    468  2  -15.605400  -11.785000  -42.761501 0
    469  2  -12.770100  -11.587900  -43.910198 0
    470  1  -14.936400  -10.774400  -41.324299 1
    471  1  -11.194700  -12.572400  -43.345001 1
    472  2   -9.708370  -11.594500  -43.797798 0
    473  1   -8.345830  -11.033000  -42.550400 2
    474  2   -6.912760  -11.831200  -43.817799 0
    475  2   -6.612170  -10.259400  -41.892601 0
    476  1  -22.112499   -7.368250  -41.532001 3
    477  2  -17.378599   -9.512700  -42.990501 0
    478  1  -18.207800   -8.133680  -44.045700 1
    479  2  -18.677999   -6.712240  -43.035500 0
    480  1  -13.033700   -9.604650  -43.785000 1
    481  2  -13.788400   -9.444470  -42.069099 0
    482  2  -11.267300   -9.097460  -43.887299 0
    483  2  -11.563600   -7.574190  -41.738499 0
    484  1   -9.961270   -8.132050  -42.616299 2
    485  2   -9.515490   -9.535460  -41.311001 0
    486  1   -6.568750   -6.815340  -42.440498 2
    487  2   -8.573110   -9.191360  -44.018398 0
    488  2   -8.467830   -7.166810  -41.725498 0
    489  2  -19.715900  -19.332899  -39.898602 0
    490  1  -21.286800  -20.321100  -39.795601 1
    491  2  -21.204100  -22.134300  -39.367599 0
    492  2  -16.605700  -20.208000  -39.142101 0
    493  1  -17.351299  -21.827101  -38.417599 2
    494  1  -15.633900  -20.208300  -40.725498 1
    495  2  -13.799600  -19.872700  -40.618500 0
    496  2  -15.593400  -22.113701  -40.960800 0
    497  1  -12.703000  -20.662600  -39.315201 1
    498  2  -11.104700  -21.209600  -40.190399 0
    499  2  -12.125600  -19.341200  -38.180302 0
    500  1   -9.383900  -20.783300  -39.684502 2
    501  2   -7.807710  -21.618401  -40.278500 0
    502  2  -20.697701  -16.892500  -39.073700 0
    503  1  -19.107201  -17.822001  -40.918800 2
    504  2  -17.576500  -17.344400  -39.632401 0
    505  1  -17.113100  -18.596300  -38.370201 1
    506  2  -12.444700  -17.228399  -40.010700 0
    507  1  -10.949600  -18.059601  -39.100101 1
    508  2   -9.054560  -16.184799  -41.208900 0
    509  2   -6.410530  -17.477800  -39.822701 0
    510  2   -9.514170  -18.859900  -40.028301 0
    511  1   -8.050260  -17.759899  -40.899799 1
    512  2  -20.945101  -13.688200  -41.163300 0
    513  1  -20.391100  -15.081100  -39.936298 1
    514  2  -21.729799  -14.254000  -38.533699 0
    515  2  -16.997200  -14.663000  -41.277401 0
    516  2  -18.766399  -14.436800  -39.153400 0
    517  1  -16.922800  -15.285100  -39.417801 2
    518  2  -16.565901  -13.336200  -39.064098 0
    519  1  -13.374400  -15.896300  -39.206799 1
    520  2  -15.073300  -15.408700  -39.911301 0
    521  1  -12.833600  -13.060200  -40.709400 1
    522  2  -12.261900  -14.442500  -39.586700 0
    523  1  -10.628700  -14.733300  -38.560799 1
    524  1   -6.601830  -14.097400  -38.494701 1
    525  2   -9.245180  -13.899400  -39.285900 0
    526  1   -8.666940  -14.166200  -41.087399 2
    527  2   -6.813340  -14.356100  -40.242901 0
    528  1  -20.594601  -11.911700  -40.583000 2
    529  2  -21.999399  -11.466400  -39.485100 0
    530  1  -18.373301  -10.056500  -41.175301 2
    531  2  -19.019501  -11.417400  -39.665901 0
    532  1  -18.348400  -12.790600  -38.500198 2
    533  2  -16.672400  -10.236300  -40.527100 0
    534  2  -14.196700  -11.980100  -40.093399 0
    535  1  -15.237200  -12.285300  -38.469601 1
    536  2  -11.693200  -11.801000  -41.270401 0
    537  1  -10.998200  -10.268700  -40.299999 1
    538  2  -10.270000  -11.025600  -38.650902 0
    539  2   -8.721860  -12.131800  -41.077801 0
    540  1   -8.524940  -11.699000  -39.252300 1
    541  2   -7.102030  -12.286600  -38.209702 0
    542  2   -7.566800   -9.871580  -39.150398 0
    543  2  -22.180700   -8.582670  -40.023201 0
    544  2  -20.356199   -7.052010  -38.300499 0
    545  1  -22.176300   -7.564420  -38.426701 2
    546  2  -19.286800   -8.584460  -40.707100 0
    547  1  -18.895500   -6.800730  -41.151299 1
    548  2  -17.011299   -6.935350  -40.517101 0
    549  1  -16.465000   -8.542650  -39.637600 1
    550  1  -13.175800   -8.075630  -40.886200 2
    551  2  -14.605900   -8.462060  -39.673000 0
    552  2  -12.061000   -8.868360  -39.432201 0
    553  1  -10.988600   -7.575990  -38.310799 1
    554  1   -8.259170   -8.389760  -40.326401 2
    555  2   -9.252690   -7.333830  -38.895000 0
    556  2   -6.387430   -7.843310  -40.516998 0
    557  1  -19.668200  -20.090401  -36.480301 2
    558  2  -21.297600  -21.322701  -36.574299 0
    559  2  -18.985300  -21.721500  -37.495998 0
    560  2  -16.576200  -21.454201  -36.523800 0
    561  1  -15.567100  -20.008600  -35.922199 1
    562  2  -13.694900  -20.475500  -35.762798 0
    563  2  -10.892300  -21.284100  -35.472801 0
    564  1   -7.645020  -19.831699  -37.115601 2
    565  2   -8.968870  -20.848000  -37.828899 0
    566  2   -7.047490  -20.819599  -35.637402 0
    567  2  -20.978100  -18.691299  -36.345200 0
    568  1  -19.928200  -17.533600  -37.431000 2
    569  2  -18.548100  -18.802700  -37.153198 0
    570  2  -16.501600  -16.312000  -35.049301 0
    571  2  -15.704300  -18.471300  -37.119301 0
    572  1  -15.370000  -16.685400  -36.591202 2
    573  2  -13.721100  -17.611799  -35.510502 0
    574  1  -12.619500  -18.977800  -36.377399 1
    575  2  -10.479900  -16.643499  -38.004501 0
    576  2  -10.962200  -18.593100  -35.642101 0
    577  1   -9.780530  -17.291000  -36.410900 1
    578  1   -6.660940  -17.151600  -37.956902 1
    579  2   -8.098360  -18.069401  -36.934799 0
    580  2   -9.072450  -16.209600  -35.148800 0
    581  2  -19.737200  -15.928100  -36.444000 0
    582  1  -20.976801  -14.412700  -36.812698 1
    583  2  -16.823000  -15.808600  -37.440800 0
    584  1  -17.965799  -15.355500  -36.012299 2
    585  2  -13.891800  -15.748000  -37.456100 0
    586  1  -13.228600  -14.349500  -36.518398 1
    587  2  -11.451300  -14.207700  -36.912998 0
    588  1  -10.478800  -13.221800  -35.561100 1
    589  1   -7.592220  -14.985100  -35.584301 2
    590  2   -8.785560  -13.604700  -36.097401 0
    591  2   -7.272520  -15.477400  -37.466599 0
    592  2  -19.959299  -12.600500  -37.156502 0
    593  1  -21.039700  -11.046400  -37.798100 1
    594  2  -17.517799  -11.638900  -37.053799 0
    595  1  -18.599400  -12.096700  -35.592499 2
    596  1  -16.718399   -9.963090  -36.777802 2
    597  2  -14.362700  -12.716200  -36.835999 0
    598  2  -15.371800  -10.527300  -38.113499 0
    599  1  -13.647700  -11.107200  -35.831001 2
    600  2  -15.145700   -9.891190  -35.536499 0
    601  2  -12.735700  -10.499400  -37.355598 0
    602  2  -11.513500  -11.706400  -35.628502 0
    603  1  -10.760400  -10.555500  -36.915798 2
    604  1   -7.482120  -12.090200  -36.230701 2
    605  2   -8.849170  -10.623400  -36.445202 0
    606  2  -20.410700   -9.304000  -37.658199 0
    607  1  -19.095301   -8.166760  -37.187698 2
    608  2  -17.394800   -8.609260  -38.054501 0