# LAMMPS data file written by OVITO Pro 3.7.5
48000 atoms
2 atom types
-22.27318702 41.49062702 xlo xhi
-22.22657061 39.94239061 ylo yhi
-66.46517063 84.50237063 zlo zhi

Atoms  # atomic

21239 1 -20.0891 -20.9253 -65.614
29423 2 -22.0294 -21.0859 -64.9475
10713 2 -19.767 -21.8873 -64.0923
11789 1 -21.5333 -22.1583 -63.3399
37024 1 -16.6571 -21.0061 -65.4731
21180 2 -18.2292 -20.1527 -66.0598
33088 2 -15.5328 -19.6945 -64.9124
39285 2 -11.1274 -20.3332 -63.7525
14869 1 -9.60081 -19.4315 -64.5197
41594 1 -12.48 -21.8033 -66.4531
45998 2 -8.7347 -21.0654 -63.759
18428 2 -9.50532 -19.9733 -66.3884
4138 2 -20.4079 -18.9616 -64.6597
9110 2 -20.754 -16.0158 -65.9232
24731 1 -20.8506 -17.9788 -66.4276
38864 1 -18.8856 -18.549 -63.8482
24060 2 -17.8095 -17.0815 -64.5791
12691 1 -18.0521 -16.3436 -66.3878
47221 1 -13.9253 -18.7987 -65.9978
2535 2 -13.3463 -18.0752 -64.2651
27284 1 -12.2441 -16.6428 -63.9917
18953 2 -10.4182 -17.645 -64.6306
26886 1 -9.60733 -16.2505 -65.9782
23298 2 -7.67928 -18.6562 -64.0937
47811 1 -6.76619 -17.9734 -65.8442
18449 1 -19.9368 -14.6583 -64.6361
42472 2 -21.2874 -13.3374 -65.3039
5998 2 -18.3984 -14.5956 -65.7393
13209 1 -17.4229 -12.9131 -65.8085
42322 2 -15.4486 -15.5691 -64.0279
35774 1 -14.8157 -15.4855 -65.8355
6927 2 -12.8869 -15.3242 -65.1485
29668 2 -14.7493 -13.6044 -66.4384
6549 1 -11.6665 -13.8067 -65.2152
12027 2 -10.2617 -14.5462 -66.2985
18475 2 -10.6236 -13.6957 -63.5831
6170 2 -8.5676 -15.7392 -64.2801
26251 1 -19.4941 -11.6067 -63.6401
45348 2 -21.0068 -10.5964 -63.4202
30583 2 -18.9861 -11.8316 -65.4625
36317 2 -16.0977 -12.2973 -64.6236
21539 1 -14.3082 -11.8228 -65.2135
3225 2 -14.5317 -10.2308 -66.3262
3535 2 -14.4135 -10.688 -63.585
28296 1 -11.299 -10.7813 -66.1572
728 2 -12.4421 -11.9889 -65.3518
3153 2 -9.69088 -11.9291 -66.063
23397 2 -9.69268 -10.6408 -63.6011
3050 2 -7.73318 -12.7355 -63.8237
21929 1 -8.46812 -11.1988 -64.9279
39072 2 -7.18162 -10.3251 -65.8772
14754 1 -21.1161 -9.51412 -65.1477
7988 2 -19.3369 -8.92563 -65.3467
408 2 -16.2543 -8.3825 -64.2957
42326 1 -18.0692 -8.72024 -63.8781
47524 1 -15.5906 -8.70061 -66.0103
44847 2 -14.0916 -7.50511 -65.9237
39141 1 -12.9467 -7.12634 -64.4346
11356 1 -10.1967 -8.7483 -63.8498
29815 2 -10.3583 -9.06949 -65.8302
20252 2 -12.126 -8.69945 -63.8948
115 2 -6.72162 -8.66511 -63.5906
26325 2 -9.06926 -7.3089 -63.7992
6057 2 -21.7915 -20.4412 -62.4913
19199 1 -21.5258 -20.9692 -60.6171
36120 2 -19.2936 -21.1022 -61.1707
18866 1 -18.9753 -19.2582 -60.893
27125 2 -17.6814 -19.9178 -63.1148
6996 1 -18.2579 -21.7325 -62.8285
12088 2 -13.9424 -20.5492 -63.031
3530 2 -15.4845 -20.703 -61.1502
15571 1 -15.7148 -19.7054 -62.8805
24529 1 -10.209 -21.9446 -62.7233
41 1 -12.5333 -19.3968 -63.1302
4108 2 -9.86335 -20.6484 -61.2419
26954 1 -6.70664 -20.234 -63.1644
47285 2 -6.87207 -20.6639 -61.4287
42159 1 -8.23882 -21.3671 -60.555
24963 2 -19.2909 -17.8422 -62.0563
26924 1 -20.0765 -16.0299 -61.5784
15378 2 -21.4586 -16.7373 -60.4266
2891 1 -16.895 -16.4271 -63.1031
47141 1 -16.2024 -17.6277 -60.4926
6103 2 -16.0591 -17.9208 -62.2991
14461 1 -13.1196 -16.8289 -60.9155
45109 1 -10.3946 -18.9349 -60.8469
39598 2 -12.0455 -18.4579 -61.555
21074 1 -8.06504 -16.9766 -63.0441
6142 2 -9.25887 -17.5287 -61.5889
45317 2 -6.74508 -16.6339 -61.7191
18594 1 -8.08897 -16.3395 -60.3626
17577 2 -20.8239 -15.559 -63.2254
9528 2 -19.7926 -14.6155 -60.2925
7983 2 -19.272 -13.3398 -63.1608
405 2 -17.9514 -15.5952 -61.8697
42419 1 -18.0255 -13.7961 -61.5309
36030 2 -16.2516 -13.181 -61.9631
23797 2 -13.5383 -13.2508 -62.9679
5817 2 -14.6478 -15.4838 -61.165
45444 1 -14.9446 -14.3219 -62.7526
1413 2 -12.2677 -15.8603 -62.3075
14919 1 -11.939 -14.0046 -62.2414
47338 2 -12.1376 -13.5685 -60.4516
24321 1 -8.79748 -14.2221 -63.2454
4248 2 -8.69225 -14.6309 -61.4208
41894 1 -7.71836 -13.3029 -60.3218
33456 1 -20.5699 -12.6395 -60.3636
385 2 -21.8348 -12.6527 -61.7609
12404 1 -22.073 -10.5196 -61.8037
11755 2 -21.0449 -10.7752 -60.2411
27593 2 -18.0445 -10.5688 -62.9636
42353 2 -18.661 -12.1642 -60.7043
32856 1 -16.0876 -11.3435 -62.9051
38829 1 -17.8135 -10.6359 -60.8578
45085 2 -15.9999 -10.6889 -61.1423
26694 1 -12.8938 -10.0415 -62.825
8593 2 -11.7251 -11.231 -61.883
39279 1 -9.92032 -10.7269 -61.7934
14994 1 -12.3831 -11.7481 -60.2976
32507 2 -9.246 -11.9407 -60.6083
265 2 -21.9363 -8.72065 -61.685
38455 2 -17.7641 -7.29281 -62.5687
6710 2 -13.3728 -9.19823 -61.2193
20541 1 -13.7779 -7.28151 -61.1901
2833 2 -15.6237 -8.05803 -60.419
8185 2 -14.3256 -6.82193 -63.0608
154 1 -10.4208 -7.70549 -60.4658
45707 2 -9.95771 -8.851 -61.7888
15645 2 -11.9912 -6.83146 -61.1348
464 1 -7.43845 -7.1201 -62.9228
24117 2 -7.23329 -7.06077 -61.0951
35408 2 -20.7632 -22.0511 -59.0664
13105 2 -19.4119 -19.4357 -57.2183
17993 2 -20.5371 -19.4271 -59.8276
30141 1 -17.5865 -19.7278 -58.1023
39543 2 -17.8607 -21.5477 -58.5277
24063 2 -15.6303 -20.0412 -57.9416
33171 1 -14.5839 -19.9942 -59.5177
2432 2 -12.9017 -20.7599 -59.0898
42074 1 -11.8255 -20.4864 -57.5074
24383 2 -10.9266 -22.2011 -58.1499
5435 2 -8.1976 -21.1196 -58.7923
47629 1 -8.50078 -19.3225 -58.4519
30375 2 -19.7817 -16.8425 -58.1791
12269 1 -20.9937 -17.9135 -59.0206
38932 2 -17.473 -18.966 -59.8574
9783 2 -16.1474 -16.286 -59.034
21101 1 -15.932 -16.9095 -57.2506
42062 2 -14.435 -18.166 -60.1658
30377 2 -10.3396 -18.9915 -58.9659
31159 1 -10.7865 -17.0644 -58.6234
29905 2 -12.3787 -16.2334 -59.2516
17535 2 -7.3902 -18.1556 -59.383
23407 2 -9.46832 -16.0958 -59.1592
5688 2 -22.0254 -15.1683 -57.3582
23609 1 -20.4924 -14.954 -58.4049
9802 2 -20.9794 -13.0188 -58.6011
11640 2 -16.9671 -13.5324 -59.2752
38714 1 -17.4233 -14.0444 -57.6207
35434 1 -15.5154 -14.6565 -59.7155
178 2 -14.2912 -13.8553 -58.5833
45281 1 -12.5211 -14.3812 -58.5881
18478 2 -11.1841 -13.2995 -57.7956
38517 2 -6.84688 -14.9613 -59.4892
33486 1 -7.74274 -14.2776 -57.4188
11685 2 -8.36363 -12.9484 -58.5766
752 2 -21.6193 -10.3824 -57.3639
18887 2 -19.0616 -9.96115 -57.5315
17688 2 -16.1203 -10.5085 -58.5807
29978 2 -14.1083 -11.4032 -59.6015
6121 1 -15.0743 -12.058 -58.0955
41973 2 -11.2957 -10.7308 -59.106
5421 1 -9.80975 -11.8742 -58.5502
29590 2 -9.29608 -10.7562 -57.0326
21666 1 -20.233 -9.58337 -59.08
39128 2 -21.2553 -8.1261 -58.6088
45284 1 -17.3762 -7.7308 -60.1148
21403 2 -18.5675 -9.20668 -60.1169
20781 1 -17.2482 -9.50833 -57.5016
24600 2 -17.2341 -7.67485 -58.1615
40059 1 -14.8456 -9.70501 -59.8563
8108 2 -13.6476 -8.61013 -58.4509
33086 1 -11.9704 -9.3414 -58.143
17957 2 -10.6565 -8.01046 -58.603
274 1 -6.66476 -8.63378 -60.0493
33571 1 -8.74206 -9.00338 -57.5
17768 2 -8.22626 -9.08529 -59.3201
24355 2 -22.129 -20.9997 -56.7096
29751 1 -20.2879 -20.7502 -56.3494
18103 2 -20.341 -20.4223 -54.5136
12900 2 -16.6486 -21.7726 -55.6814
27575 2 -15.3794 -19.4784 -54.7172
2974 1 -15.1128 -20.698 -56.2781
27435 2 -13.328 -21.0395 -56.2333
11591 1 -12.1594 -20.8939 -54.5731
46288 2 -10.9072 -20.2151 -55.8167
14697 2 -19.6499 -17.3907 -54.9289
1430 2 -17.2016 -18.227 -56.8713
15521 1 -19.0839 -17.6195 -56.6564
2893 2 -14.369 -17.5362 -56.6622
12809 1 -14.6967 -17.7615 -54.8115
36098 2 -13.0197 -17.1816 -54.368
33035 2 -11.4413 -17.6591 -56.9474
44436 1 -12.4765 -16.3927 -55.9811
21616 1 -10.1375 -18.4651 -55.8956
15020 2 -10.15 -17.8578 -54.1559
23635 2 -8.39914 -18.8909 -56.5682
36659 1 -7.34786 -17.3953 -56.0342
39538 2 -7.81123 -16.6895 -54.4194
2490 2 -19.0868 -14.502 -57.0023
2451 1 -19.5676 -13.536 -55.5475
22292 2 -20.8392 -14.4555 -54.5507
42595 2 -16.4883 -15.2863 -56.4405
3344 1 -16.4099 -14.9462 -54.5845
44857 2 -18.3411 -14.5152 -54.159
26853 2 -14.7864 -13.9975 -54.3074
6811 1 -13.5365 -13.3306 -55.4838
39118 2 -13.0373 -14.735 -56.6146
36009 1 -10.5252 -13.6945 -56.072
13130 2 -10.6057 -15.539 -55.5456
24381 1 -9.61723 -15.8663 -53.9426
36645 2 -7.81879 -15.9612 -57.0069
14858 2 -8.70566 -13.5134 -55.7892
24512 2 -21.5998 -10.7964 -54.6451
15284 1 -20.2372 -10.2185 -55.8742
47632 2 -19.0395 -11.7076 -55.3484
6325 2 -16.5169 -12.6104 -56.8276
38776 1 -17.1255 -11.6446 -55.3198
33868 2 -16.8739 -9.79821 -55.4739
29837 2 -13.9156 -11.7587 -56.5764
17844 1 -13.6296 -10.1779 -55.6384
42945 2 -13.7208 -11.1739 -53.9964
21877 2 -11.7151 -12.8881 -54.8719
2853 2 -9.38082 -10.2696 -54.1801
39726 1 -8.51027 -11.6079 -55.4178
47357 2 -6.65236 -11.3377 -55.7313
47700 2 -19.9257 -8.44558 -55.1189
134 1 -20.7593 -6.99515 -56.0884
8829 1 -16.085 -8.3289 -54.5512
24341 1 -13.8028 -7.29767 -57.0238
20393 2 -14.5199 -8.48945 -55.8007
27713 2 -11.9768 -9.76837 -56.2996
14541 1 -10.6365 -9.20159 -55.0264
18458 2 -11.8436 -8.46572 -53.9253
24718 2 -9.67396 -7.98002 -56.1504
21578 2 -7.04183 -8.49836 -56.6227
3217 2 -21.7967 -21.4692 -51.8051
45689 1 -21.8272 -20.9076 -53.5784
21874 1 -20.3562 -20.6524 -50.8963
28668 2 -20.6479 -19.1982 -52.1633
3643 2 -17.7653 -19.2424 -53.1922
18613 2 -16.0474 -21.7972 -52.8067
27557 2 -18.9876 -21.8715 -50.7601
32919 1 -15.0878 -20.2592 -53.1067
29798 2 -13.0754 -20.3644 -52.9322
281 1 -12.611 -20.5917 -51.1294
12721 1 -10.0349 -22.069 -52.3314
21148 2 -9.24855 -20.3275 -52.0698
15861 1 -7.01711 -20.8094 -52.4048
250 2 -6.91105 -19.1466 -53.4846
42140 2 -21.5202 -16.6281 -52.9036
14934 1 -21.1765 -17.6262 -51.2699
6009 1 -19.4438 -18.925 -53.5943
3915 2 -15.9694 -16.6404 -53.8508
15103 2 -18.7098 -16.7249 -52.5403
426 1 -16.8826 -17.8273 -52.4442
8827 2 -16.9984 -17.1059 -50.7707
41931 1 -18.5953 -16.0629 -50.7502
23873 2 -15.1633 -18.6711 -51.9916
26883 2 -13.6528 -16.3484 -51.3232
28054 1 -12.3981 -16.6207 -52.702
33513 2 -11.3468 -17.8234 -51.7277
881 1 -9.75007 -18.5739 -52.4475
8610 2 -8.45661 -17.4465 -51.6873
9251 1 -6.99513 -17.3607 -52.8975
27679 1 -19.9103 -15.8604 -53.7576
15143 2 -19.3768 -14.3183 -51.3689
20661 1 -18.3079 -13.2848 -52.5704
46175 2 -16.4603 -13.7596 -51.6543
6272 2 -13.428 -13.4886 -52.0257
31243 2 -11.2166 -15.255 -52.9081
309 1 -11.7506 -13.4603 -52.9904
9027 2 -8.49261 -15.0482 -52.6262
20881 1 -7.24114 -13.8174 -53.0562
12281 1 -8.67531 -15.7958 -50.7592
45538 2 -22.187 -12.72 -51.8744
44394 1 -21.444 -11.1748 -52.8703
3658 2 -19.6743 -11.8264 -52.2627
40926 1 -19.5046 -10.1291 -50.9371
33555 2 -21.3612 -9.80909 -51.5201
14837 2 -16.7799 -12.2289 -53.5792
36859 1 -15.1129 -12.7411 -52.8241
6673 2 -14.9082 -11.3332 -51.4922
20406 1 -13.8389 -10.1018 -52.4618
27723 2 -10.7518 -12.4004 -51.8987
18146 1 -9.28322 -11.3403 -52.4066
36168 2 -8.07026 -12.2273 -53.459
3173 2 -20.5402 -7.2811 -52.3769
30191 1 -19.1442 -8.06432 -53.4553
23491 1 -21.7036 -8.10636 -50.901
6738 2 -16.7155 -6.83281 -50.9451
5635 2 -17.47 -7.39661 -53.6231
2532 2 -18.315 -9.34914 -52.2203
47924 1 -16.7172 -8.53269 -51.705
358 2 -15.2391 -8.80057 -52.9517
3165 2 -12.6681 -9.02866 -51.4317
6534 1 -12.008 -7.46469 -52.3576
18537 2 -8.59511 -7.02958 -53.6062
42423 2 -9.21019 -9.51231 -51.7266
47847 2 -7.11631 -7.42928 -51.4154
40186 1 -8.02851 -8.59963 -52.819
45648 2 -20.937 -19.7948 -49.3908
27129 1 -17.3896 -21.2926 -49.668
45693 2 -18.2796 -19.4143 -49.6382
14667 2 -16.0387 -20.0783 -48.8007
3560 2 -18.4205 -22.1084 -48.1742
16193 2 -13.8475 -21.8848 -50.682
3438 2 -12.8769 -19.1454 -49.9978
38618 2 -11.1158 -21.6196 -50.6614
45660 2 -12.6935 -21.541 -48.3297
18308 2 -7.34137 -21.1788 -50.531
24139 1 -9.20925 -20.6365 -49.9364
39015 2 -9.51805 -22.0742 -48.7126
29530 2 -21.175 -17.787 -47.8525
14365 2 -20.0616 -16.9214 -50.0478
35694 1 -19.6359 -18.6335 -48.5048
23808 2 -18.1409 -17.6024 -47.7126
20376 1 -16.9307 -18.301 -49.0948
33216 1 -14.3044 -17.9619 -50.5247
18108 2 -15.1825 -17.5021 -48.9497
5206 1 -14.0457 -16.1747 -48.0738
705 2 -9.88034 -19.0643 -49.1314
30385 2 -12.3638 -16.7783 -48.72
15561 1 -11.2476 -17.9536 -49.778
24217 2 -10.0751 -16.3698 -49.5897
27867 2 -6.84929 -16.4738 -50.0613
45366 1 -6.8564 -17.1281 -48.3614
29119 1 -20.5177 -12.9634 -50.7044
36195 2 -21.4433 -13.7035 -49.1905
3102 2 -17.9279 -14.9957 -49.1932
9024 1 -16.434 -13.9691 -49.7128
3326 1 -13.4506 -14.5743 -50.5219
17412 2 -14.7312 -14.7003 -49.2125
25030 2 -10.6725 -13.3003 -48.0387
42191 1 -11.2153 -15.2418 -48.4738
2287 2 -11.7489 -14.1841 -50.0438
12515 2 -8.75447 -13.9792 -50.1213
33558 2 -19.4307 -11.6414 -49.7682
3878 2 -18.0752 -9.81617 -47.6691
44169 1 -18.3114 -11.6757 -48.1512
9652 2 -16.5165 -12.1583 -48.7618
10084 1 -15.432 -10.8074 -49.6642
36522 2 -13.7035 -10.5232 -49.0767
25301 1 -12.0489 -10.8738 -47.7272
22539 1 -10.353 -12.8514 -50.0069
30663 2 -11.0163 -11.0156 -49.4045
3481 1 -7.24405 -12.6271 -49.8114
3370 2 -8.75174 -11.6188 -50.5489
45798 2 -7.78464 -12.1311 -47.9243
886 1 -7.07111 -10.3227 -48.122
24464 1 -19.1584 -8.03435 -48.2662
45025 2 -19.8086 -8.585 -49.8378
14741 1 -22.1186 -7.43833 -48.0081
21895 2 -16.3442 -9.17934 -49.9473
42195 2 -17.5905 -6.96998 -48.2632
42046 1 -15.832 -7.27037 -49.1426
27792 2 -13.9304 -7.34622 -49.5787
3124 1 -12.8509 -8.78084 -49.5784
18235 2 -11.043 -8.13202 -49.657
35746 1 -9.84446 -9.54313 -49.9584
24878 2 -8.52726 -9.12937 -48.6236
44411 1 -21.3761 -19.5661 -45.7609
45358 2 -19.7586 -19.8166 -46.6622
33154 1 -18.6924 -21.325 -46.5316
6400 2 -17.0234 -20.6662 -45.7235
29766 1 -15.7085 -20.3976 -47.0511
3253 2 -14.0322 -19.3636 -46.6006
30123 2 -15.0436 -22.1838 -47.0858
27241 1 -12.4502 -20.5187 -46.7387
9047 2 -12.1145 -21.6506 -45.305
36915 2 -11.2509 -19.1315 -46.4543
43782 2 -8.14361 -20.2252 -47.0164
22441 1 -6.5892 -19.3586 -46.3226
31709 1 -8.3013 -22.1113 -47.2017
45466 1 -21.6142 -16.5904 -46.4198
33662 2 -21.4721 -17.8425 -45.0667
9704 1 -14.3525 -17.9168 -45.4301
18013 2 -15.0675 -16.5127 -46.3953
27588 2 -15.8226 -18.7174 -44.5352
30348 2 -12.6737 -17.2112 -45.0009
28236 1 -9.53797 -18.9252 -47.2114
33145 2 -10.1418 -16.5256 -44.4726
12125 2 -8.11599 -17.7095 -46.8158
9582 2 -6.3762 -18.562 -44.6504
6373 2 -20.3212 -15.2601 -46.6498
45734 1 -21.1142 -13.565 -47.2945
10626 1 -18.8523 -13.3642 -45.26
21345 2 -17.5684 -14.6276 -46.117
24801 1 -18.4542 -15.6857 -47.4026
3651 1 -15.9283 -15.1214 -45.3641
27278 2 -14.6744 -13.7766 -45.1001
15871 1 -13.0455 -13.3924 -46.1222
46352 2 -12.781 -14.9634 -47.1511
12742 2 -10.2926 -15.7995 -46.8154
34146 1 -11.7164 -15.7588 -45.4344
19177 2 -11.7869 -13.9309 -44.7763
6606 1 -8.59474 -15.9059 -46.0275
39497 2 -8.83864 -13.7575 -45.5889
20638 2 -7.16415 -15.5709 -47.3344
29635 2 -7.44593 -15.6873 -44.596
5963 2 -19.3884 -12.685 -47.013
24055 2 -18.2466 -11.7112 -44.5551
26897 2 -15.8133 -10.5446 -45.5851
13178 2 -13.2075 -11.7532 -46.7491
11963 2 -10.3189 -10.9943 -46.4834
26984 1 -10.0219 -10.0079 -44.9801
21341 1 -9.38499 -12.5875 -46.8828
42330 2 -6.5419 -10.1977 -46.236
36686 1 -21.37 -8.26825 -44.856
17153 2 -20.4116 -7.23378 -47.174
42460 2 -19.7207 -9.11206 -44.553
10052 2 -17.3253 -7.98312 -45.6039
12556 1 -16.6136 -9.29275 -46.5906
16019 1 -13.607 -7.91546 -46.6481
35437 2 -13.9423 -8.17706 -44.7591
18852 2 -15.3247 -8.12932 -47.4276
33265 2 -10.0307 -7.84821 -46.2395
34448 2 -12.3037 -8.95548 -47.56
22010 2 -7.34672 -7.39639 -46.2292
22179 1 -6.98773 -8.87144 -44.9705
21984 1 -8.68581 -7.66595 -47.4956
18340 2 -21.422 -20.7886 -44.3388
30561 1 -20.5916 -20.3427 -42.6463
33800 2 -19.7921 -21.8857 -42.1463
19025 2 -22.1134 -20.419 -41.4281
9534 1 -16.4216 -20.7105 -43.888
1998 2 -16.6637 -19.706 -42.1604
10853 2 -14.7988 -21.652 -44.1985
15394 1 -13.0711 -21.2846 -43.6508
36772 2 -12.7455 -19.4964 -43.3957
27910 2 -9.93439 -19.6664 -44.1535
10007 2 -7.13627 -21.2766 -43.6167
6571 1 -9.04474 -21.1784 -43.9735
23734 1 -21.747 -17.489 -43.1479
35175 2 -20.3371 -18.5358 -42.4615
45605 2 -19.7145 -16.0381 -41.371
6912 2 -17.8996 -17.3813 -42.5167
6144 1 -16.1342 -17.918 -42.8733
745 2 -14.6199 -17.3787 -42.0947
7096 1 -12.9712 -18.2984 -41.7
21576 1 -11.2449 -18.4246 -44.2533
39572 2 -11.4398 -17.4956 -42.448
15692 2 -7.6798 -19.0168 -42.1154
31027 2 -21.8353 -15.6362 -43.3732
44781 1 -20.7595 -14.1799 -42.9583
39417 2 -18.9824 -14.5802 -43.6927
35823 2 -15.9774 -15.6507 -43.5818
36386 1 -18.0011 -15.5355 -42.497
6304 1 -15.0572 -15.3837 -41.7981
6725 2 -13.7462 -14.0533 -42.1399
33274 1 -10.3354 -15.9838 -42.5633
33105 2 -10.3385 -14.1699 -42.3539
39859 1 -7.30503 -13.6181 -44.4384
3593 2 -7.38202 -14.1241 -42.5792
30272 2 -20.7306 -12.8246 -44.4355
12808 2 -21.8584 -10.3834 -44.373
36021 1 -19.9264 -11.0293 -43.8635
24283 2 -19.8914 -10.971 -42.0297
45384 1 -16.6706 -10.9214 -44.0177
14789 1 -14.2056 -12.8515 -43.5152
43967 2 -15.6054 -11.785 -42.7615
20617 2 -12.7701 -11.5879 -43.9102
21089 1 -14.9364 -10.7744 -41.3243
13031 1 -11.1947 -12.5724 -43.345
19813 2 -9.70837 -11.5945 -43.7978
18376 1 -8.34583 -11.033 -42.5504
29475 2 -6.91276 -11.8312 -43.8178
30878 2 -6.61217 -10.2594 -41.8926
30041 1 -22.1125 -7.36825 -41.532
44658 2 -17.3786 -9.5127 -42.9905
7014 1 -18.2078 -8.13368 -44.0457
18783 2 -18.678 -6.71224 -43.0355
27731 1 -13.0337 -9.60465 -43.785
34238 2 -13.7884 -9.44447 -42.0691
848 2 -11.2673 -9.09746 -43.8873
42922 2 -11.5636 -7.57419 -41.7385
30639 1 -9.96127 -8.13205 -42.6163
24700 2 -9.51549 -9.53546 -41.311
9699 1 -6.56875 -6.81534 -42.4405
833 2 -8.57311 -9.19136 -44.0184
12072 2 -8.46783 -7.16681 -41.7255
15875 2 -19.7159 -19.3329 -39.8986
18494 1 -21.2868 -20.3211 -39.7956
19138 2 -21.2041 -22.1343 -39.3676
44972 2 -16.6057 -20.208 -39.1421
811 1 -17.3513 -21.8271 -38.4176
45639 1 -15.6339 -20.2083 -40.7255
8957 2 -13.7996 -19.8727 -40.6185
36897 2 -15.5934 -22.1137 -40.9608
5821 1 -12.703 -20.6626 -39.3152
37193 2 -11.1047 -21.2096 -40.1904
33067 2 -12.1256 -19.3412 -38.1803
13174 1 -9.3839 -20.7833 -39.6845
32512 2 -7.80771 -21.6184 -40.2785
18828 2 -20.6977 -16.8925 -39.0737
34026 1 -19.1072 -17.822 -40.9188
45388 2 -17.5765 -17.3444 -39.6324
15426 1 -17.1131 -18.5963 -38.3702
12187 2 -12.4447 -17.2284 -40.0107
28914 1 -10.9496 -18.0596 -39.1001
993 2 -9.05456 -16.1848 -41.2089
18642 2 -6.41053 -17.4778 -39.8227
35918 2 -9.51417 -18.8599 -40.0283
6171 1 -8.05026 -17.7599 -40.8998
3090 2 -20.9451 -13.6882 -41.1633
18551 1 -20.3911 -15.0811 -39.9363
8425 2 -21.7298 -14.254 -38.5337
10267 2 -16.9972 -14.663 -41.2774
45808 2 -18.7664 -14.4368 -39.1534
26771 1 -16.9228 -15.2851 -39.4178
21435 2 -16.5659 -13.3362 -39.0641
39214 1 -13.3744 -15.8963 -39.2068
11732 2 -15.0733 -15.4087 -39.9113
18304 1 -12.8336 -13.0602 -40.7094
9678 2 -12.2619 -14.4425 -39.5867
41829 1 -10.6287 -14.7333 -38.5608
27099 1 -6.60183 -14.0974 -38.4947
27765 2 -9.24518 -13.8994 -39.2859
36526 1 -8.66694 -14.1662 -41.0874
34282 2 -6.81334 -14.3561 -40.2429
27866 1 -20.5946 -11.9117 -40.583
15443 2 -21.9994 -11.4664 -39.4851
40089 1 -18.3733 -10.0565 -41.1753
10275 2 -19.0195 -11.4174 -39.6659
47006 1 -18.3484 -12.7906 -38.5002
33682 2 -16.6724 -10.2363 -40.5271
27048 2 -14.1967 -11.9801 -40.0934
8864 1 -15.2372 -12.2853 -38.4696
19092 2 -11.6932 -11.801 -41.2704
3804 1 -10.9982 -10.2687 -40.3
3003 2 -10.27 -11.0256 -38.6509
25577 2 -8.72186 -12.1318 -41.0778
4106 1 -8.52494 -11.699 -39.2523
15778 2 -7.10203 -12.2866 -38.2097
30560 2 -7.5668 -9.87158 -39.1504
39613 2 -22.1807 -8.58267 -40.0232
10127 2 -20.3562 -7.05201 -38.3005
39984 1 -22.1763 -7.56442 -38.4267
45380 2 -19.2868 -8.58446 -40.7071
34539 1 -18.8955 -6.80073 -41.1513
39995 2 -17.0113 -6.93535 -40.5171
741 1 -16.465 -8.54265 -39.6376
43884 1 -13.1758 -8.07563 -40.8862
28430 2 -14.6059 -8.46206 -39.673
29760 2 -12.061 -8.86836 -39.4322
25334 1 -10.9886 -7.57599 -38.3108
9541 1 -8.25917 -8.38976 -40.3264
29792 2 -9.25269 -7.33383 -38.895
12795 2 -6.38743 -7.84331 -40.517
5869 1 -19.6682 -20.0904 -36.4803
39357 2 -21.2976 -21.3227 -36.5743
22183 2 -18.9853 -21.7215 -37.496
30045 2 -16.5762 -21.4542 -36.5238
1011 1 -15.5671 -20.0086 -35.9222
18958 2 -13.6949 -20.4755 -35.7628
27047 2 -10.8923 -21.2841 -35.4728
18484 1 -7.64502 -19.8317 -37.1156
39893 2 -8.96887 -20.848 -37.8289
45572 2 -7.04749 -20.8196 -35.6374
40035 2 -20.9781 -18.6913 -36.3452
30396 1 -19.9282 -17.5336 -37.431
28163 2 -18.5481 -18.8027 -37.1532
31272 2 -16.5016 -16.312 -35.0493
36698 2 -15.7043 -18.4713 -37.1193
3821 1 -15.37 -16.6854 -36.5912
38790 2 -13.7211 -17.6118 -35.5105
9119 1 -12.6195 -18.9778 -36.3774
30157 2 -10.4799 -16.6435 -38.0045
25283 2 -10.9622 -18.5931 -35.6421
24056 1 -9.78053 -17.291 -36.4109
15001 1 -6.66094 -17.1516 -37.9569
42228 2 -8.09836 -18.0694 -36.9348
3853 2 -9.07245 -16.2096 -35.1488
1120 2 -19.7372 -15.9281 -36.444
9074 1 -20.9768 -14.4127 -36.8127
21982 2 -16.823 -15.8086 -37.4408
47499 1 -17.9658 -15.3555 -36.0123
38935 2 -13.8918 -15.748 -37.4561
3759 1 -13.2286 -14.3495 -36.5184
18182 2 -11.4513 -14.2077 -36.913
35469 1 -10.4788 -13.2218 -35.5611
36676 1 -7.59222 -14.9851 -35.5843
2118 2 -8.78556 -13.6047 -36.0974
14748 2 -7.27252 -15.4774 -37.4666
39745 2 -19.9593 -12.6005 -37.1565
39394 1 -21.0397 -11.0464 -37.7981
27065 2 -17.5178 -11.6389 -37.0538
11641 1 -18.5994 -12.0967 -35.5925
12121 1 -16.7184 -9.96309 -36.7778
3342 2 -14.3627 -12.7162 -36.836
31388 2 -15.3718 -10.5273 -38.1135
1254 1 -13.6477 -11.1072 -35.831
39857 2 -15.1457 -9.89119 -35.5365
39885 2 -12.7357 -10.4994 -37.3556
45900 2 -11.5135 -11.7064 -35.6285
12914 1 -10.7604 -10.5555 -36.9158
15261 1 -7.48212 -12.0902 -36.2307
17998 2 -8.84917 -10.6234 -36.4452
34285 2 -20.4107 -9.304 -37.6582
39711 1 -19.0953 -8.16676 -37.1877
20328 2 -17.3948 -8.60926 -38.0545
15908 2 -18.2116 -9.1562 -35.7364
21091 1 -13.7744 -9.21652 -38.1437
622 2 -13.9205 -7.65081 -36.9445
6814 1 -14.3209 -8.21475 -35.1227
46212 2 -15.8357 -7.00808 -35.287
45178 2 -10.7654 -8.4859 -36.6663
9516 1 -6.4353 -7.21569 -35.8042
40030 2 -22.1592 -21.16 -33.651
16101 1 -20.3349 -20.442 -33.2958
42582 2 -19.1785 -20.9366 -34.7383
1090 2 -16.1728 -21.9994 -33.69
7718 2 -16.0875 -19.2758 -34.3796
42678 2 -17.3712 -19.7042 -31.8767
36664 1 -15.8767 -20.3477 -32.8794
33737 2 -14.1994 -19.5728 -32.1766
4466 1 -12.7613 -20.7961 -32.0352
12014 1 -12.6947 -21.9744 -35.0087
6131 1 -10.4449 -19.7938 -34.2506
36257 2 -11.4702 -19.4782 -32.5845
6322 2 -6.47264 -20.3503 -32.4354
37149 1 -7.67716 -20.8181 -33.8658
33855 2 -8.79759 -19.4243 -33.6317
6155 2 -20.2693 -18.6544 -33.299
30601 1 -21.4912 -17.2911 -33.0491
18808 2 -17.2553 -16.4406 -31.8808
39928 2 -14.4304 -16.6275 -32.8959
17216 1 -12.9439 -16.5185 -34.219
9407 2 -11.372 -16.5949 -33.2975
15552 2 -6.43819 -17.2443 -32.0844
18743 2 -9.32467 -16.7854 -31.9026
15648 2 -21.4883 -14.0976 -34.9874
47315 2 -20.1629 -15.7757 -33.0443
24846 1 -20.0184 -13.8719 -33.5354
720 2 -21.625 -13.251 -32.6661
46185 2 -18.3863 -13.8647 -34.9744
37184 1 -16.0618 -15.8554 -33.3146
24973 2 -18.6193 -13.3837 -32.2733
6992 2 -15.7521 -14.0264 -33.1341
5903 2 -13.5414 -14.736 -34.7575
8746 1 -13.9481 -13.4459 -33.4078
7023 2 -12.8757 -13.7527 -31.8827
24802 2 -10.5688 -13.9251 -33.808
12359 1 -9.69199 -15.6746 -33.4222
13106 1 -11.0748 -12.9622 -32.209
18473 2 -7.87664 -14.82 -33.371
12266 1 -7.90032 -12.95 -32.8805
3155 2 -22.1719 -10.1192 -33.5338
39341 1 -21.9694 -11.6966 -34.5795
9287 2 -20.1101 -11.9359 -34.4048
43104 1 -17.0113 -12.6315 -33.1628
6505 2 -17.398 -11.2851 -34.4472
21643 2 -15.9233 -11.6659 -31.8903
18065 2 -13.8862 -11.6897 -34.0157
20581 1 -12.7747 -10.4307 -33.0345
21540 2 -11.2208 -11.1924 -32.2941
33947 2 -8.06981 -11.7189 -34.3198
27804 1 -8.38336 -9.85567 -34.7431
41569 1 -20.6662 -9.70274 -32.358
13357 2 -20.8162 -7.79718 -32.6761
6716 1 -15.9822 -6.70199 -33.1751
43623 2 -18.8675 -9.67258 -32.5112
39486 1 -17.857 -9.46508 -33.9918
18728 2 -16.3865 -8.706 -33.0304
18702 2 -13.7764 -7.11433 -33.6434
985 2 -12.7271 -9.31515 -34.7329
43374 1 -10.0385 -9.5204 -32.0177
9451 1 -11.2197 -8.12805 -34.9226
5017 2 -11.3067 -7.94445 -31.9855
45293 2 -9.92787 -9.24306 -33.8937
5697 2 -8.03841 -9.46811 -31.963
6977 2 -7.31664 -8.45238 -34.58
41476 1 -6.51277 -8.43586 -32.7285
36550 2 -19.4697 -21.5383 -29.112
7280 2 -19.9972 -21.474 -31.668
10764 1 -21.1398 -21.5313 -30.0452
44552 2 -21.658 -19.6581 -29.8219
36013 2 -17.7531 -19.5707 -29.3041
25499 1 -18.1909 -21.0228 -30.5009
22294 1 -14.5854 -21.9242 -29.7309
42112 2 -12.7478 -21.4553 -30.2793
33122 2 -15.1739 -21.7764 -31.4796
12685 2 -10.0363 -22.196 -31.0495
24856 1 -7.04006 -20.4694 -30.5914
42683 2 -8.47521 -19.21 -30.4856
45015 2 -7.55313 -22.0514 -29.9514
30737 2 -22.2573 -17.6075 -31.2777
34104 1 -20.8273 -18.0783 -29.8869
24158 2 -19.1684 -17.6742 -30.6519
21181 1 -19.087 -16.0815 -31.5999
1516 1 -17.2978 -18.1658 -30.8937
34416 1 -15.1407 -16.58 -28.8878
36660 2 -15.5477 -17.8646 -30.1898
42439 1 -14.2351 -17.8418 -31.5377
9492 2 -12.7316 -17.4502 -30.6749
37074 1 -9.53084 -19.1162 -28.8839
33651 1 -11.9971 -16.7483 -28.9427
25051 1 -11.0375 -17.8218 -31.5857
32755 2 -10.5554 -17.6806 -29.5939
34089 1 -7.97317 -17.4364 -30.9464
45515 2 -7.35138 -17.0653 -29.2548
23654 1 -22.1171 -12.9281 -30.9024
28523 2 -22.1797 -14.8516 -30.1973
46505 2 -19.3103 -14.8446 -30.2324
39424 1 -21.0218 -14.9596 -28.7614
28453 2 -17.3175 -13.0922 -29.4724
34249 1 -18.954 -12.9182 -30.4788
39390 2 -15.0041 -14.8884 -29.6607
18784 1 -13.5066 -13.9853 -30.1297
25147 2 -11.9381 -14.9164 -29.5919
26227 2 -9.34154 -13.5215 -31.6272
1200 2 -6.8414 -14.4386 -29.9169
30324 1 -8.42127 -13.2984 -30.0656
42005 2 -9.18126 -14.4856 -28.856
34133 2 -20.7393 -12.6201 -29.6656
26907 2 -21.4222 -9.81858 -30.5935
39221 1 -20.7822 -10.7862 -29.1484
6707 2 -19.0171 -10.9161 -30.1049
27570 2 -16.0672 -10.002 -29.7852
12719 1 -15.8537 -12.1402 -30.0359
12865 2 -14.0501 -12.2773 -29.6471
18084 1 -10.1215 -10.9119 -28.8074
3398 2 -11.1228 -12.4269 -29.2563
33005 2 -7.00789 -12.3056 -31.3899
15064 1 -7.18972 -10.5237 -30.5835
28618 2 -8.36513 -11.5109 -29.4664
9051 1 -22.0787 -7.28077 -31.4105
10068 2 -21.1418 -7.0943 -29.8218
6420 2 -17.9564 -7.80935 -29.9689
37284 1 -17.9686 -9.60823 -29.3134
9099 1 -15.5762 -9.67689 -31.6424
25576 1 -13.3302 -7.53563 -31.6303
40475 2 -13.719 -9.40895 -31.721
32672 2 -15.3148 -6.91377 -31.3471
16110 2 -12.6351 -7.30552 -29.7313
36832 2 -10.1653 -9.5236 -30.1605
15714 1 -10.8354 -7.88935 -29.5417
34750 2 -7.03684 -9.08361 -29.2737
46142 2 -6.71333 -7.06055 -31.4051
16928 2 -21.6514 -19.1848 -26.5308
12993 2 -22.2165 -21.7788 -28.3558
44983 2 -18.0168 -20.8904 -26.8092
30759 1 -16.7438 -20.0518 -27.8912
187 2 -13.1124 -20.0847 -27.0782
12118 2 -15.3344 -21.1558 -28.3661
12764 1 -11.3002 -20.2364 -26.9067
6280 2 -10.3972 -20.7946 -28.5614
18033 2 -8.17606 -21.709 -26.8681
18554 1 -7.63109 -20.1741 -25.885
2735 2 -8.15089 -19.1924 -27.7048
3889 1 -20.5824 -17.4632 -26.7004
623 2 -21.0178 -16.9482 -28.4837
3547 2 -21.853 -16.3834 -25.8476
43155 2 -18.8278 -17.4949 -26.0167
10041 1 -17.0874 -17.2016 -26.3534
36033 2 -16.8596 -16.3009 -28.0647
40348 2 -15.9589 -18.6428 -26.6286
10141 1 -13.9835 -18.5931 -26.6326
15800 2 -13.7039 -17.2862 -27.9362
32878 2 -10.5662 -18.404 -27.0526
13391 1 -11.7477 -16.2996 -25.7092
43179 1 -9.12218 -17.6661 -26.0329
46327 2 -7.87452 -16.3043 -26.6795
24939 1 -6.47856 -18.4738 -28.1279
18529 1 -19.1565 -13.5262 -26.0348
25230 2 -19.6117 -14.6626 -27.6061
45665 2 -17.3524 -13.6897 -26.8886
45154 1 -17.6773 -14.7287 -28.5122
45507 2 -12.702 -13.2319 -27.2882
41790 2 -11.2485 -15.7571 -27.388
11704 1 -10.8884 -13.9908 -28.1813
24558 2 -9.9209 -13.4822 -26.5711
27839 1 -7.52183 -15.4216 -28.3747
7148 2 -6.53793 -14.1876 -27.1195
6882 2 -19.7865 -11.7585 -26.5507
6396 1 -21.7346 -12.5788 -26.5786
34327 2 -22.1572 -11.1282 -27.8457
19306 1 -18.6876 -10.2584 -26.1491
42972 2 -17.3518 -9.88507 -27.5105
36840 2 -14.394 -10.7258 -27.1603
2841 1 -12.9249 -11.6575 -28.2259
9767 2 -11.7611 -10.1975 -27.9263
36622 2 -9.23807 -10.0849 -27.3033
18644 1 -20.3099 -8.0419 -27.2841
6772 2 -21.9896 -7.22057 -26.9589
36432 2 -19.7924 -9.45558 -28.2346
12787 2 -19.5593 -8.61623 -25.6317
36371 1 -15.5441 -9.36405 -27.6802
7407 2 -15.3497 -7.53734 -28.1614
10503 2 -15.4065 -8.56724 -25.7552
6646 1 -15.0768 -6.76614 -26.455
18463 2 -10.6651 -7.57026 -27.692
12741 1 -10.7272 -9.11824 -26.6539
28250 2 -12.3641 -8.85181 -25.7336
821 1 -7.37924 -9.74554 -27.5324
38912 2 -6.69874 -8.65463 -26.2513
39609 1 -6.71877 -6.7277 -26.5496
39954 1 -21.5465 -19.7609 -24.6995
34162 2 -20.179 -21.0995 -24.2097
24009 1 -18.0654 -21.05 -24.9735
23815 2 -17.8942 -19.5535 -23.9837
43310 2 -16.1798 -21.2283 -24.3103
509 1 -15.961 -19.7266 -23.0937
33093 2 -14.0507 -19.9108 -23.6666
12791 1 -12.6666 -21.0458 -23.0418
43665 2 -10.5832 -21.0426 -25.4439
7366 1 -9.89656 -20.1377 -23.6965
34073 2 -10.8523 -21.6231 -22.8389
16423 2 -11.6143 -19.2904 -22.9195
20912 2 -8.12508 -21.4893 -24.2473
10131 1 -7.60973 -21.666 -22.4537
19480 2 -20.8859 -18.0064 -24.2056
18616 1 -21.6407 -16.3309 -23.8736
496 1 -19.147 -18.2479 -23.5613
9639 1 -16.3385 -16.4398 -22.9623
4293 2 -18.1749 -16.8547 -22.7047
16005 2 -16.3649 -16.198 -24.8695
25094 1 -13.277 -18.1399 -23.3929
39453 2 -13.0478 -17.6356 -25.2566
31228 2 -15.2296 -17.9979 -22.697
7145 2 -10.0066 -16.6797 -24.7872
39762 2 -12.5198 -16.6556 -22.5088
6890 2 -8.68157 -19.0385 -24.8475
6855 2 -7.40853 -16.1766 -23.8448
25606 1 -9.12572 -16.2357 -23.117
36320 2 -21.1592 -14.9866 -22.6708
6127 2 -20.8565 -13.7462 -25.1554
18886 1 -21.176 -13.2256 -23.3786
30569 1 -16.5394 -14.3772 -25.3588
15047 2 -18.018 -13.625 -24.3883
34171 1 -13.3117 -13.3391 -25.5308
22788 2 -15.0848 -13.3629 -24.8567
3726 1 -14.9202 -13.2428 -22.8549
1730 2 -13.0097 -13.1918 -22.5773
21945 2 -12.4792 -14.8685 -24.7873
34767 2 -10.077 -14.4296 -23.2396
18186 1 -12.0271 -14.7931 -22.8167
13119 1 -9.81025 -13.3962 -24.7855
44039 1 -6.89985 -15.0915 -25.4092
12470 2 -7.9144 -13.5896 -24.7415
29710 2 -19.7508 -12.0667 -22.8528
9217 2 -17.6175 -10.5724 -24.5766
5894 1 -17.8604 -12.0496 -23.4327
15811 1 -13.7709 -10.0473 -25.4211
36685 2 -13.0026 -11.6522 -24.7707
38591 1 -11.9448 -11.5161 -22.9375
37173 2 -10.2157 -11.7249 -24.1154
1789 1 -9.33113 -10.18 -23.868
36430 2 -7.59166 -10.7593 -24.3618
33619 1 -7.26613 -12.4472 -23.4768
31118 2 -21.9869 -9.5182 -23.387
4494 1 -19.28 -7.37959 -24.119
9488 2 -21.1672 -6.75655 -24.0455
30650 2 -17.2327 -7.53482 -23.5396
27634 1 -16.316 -9.13935 -23.965
31442 2 -14.5837 -9.6691 -23.5612
34367 2 -12.8458 -7.27805 -22.8538