ITEM: TIMESTEP
0
ITEM: NUMBER OF ATOMS
9163
ITEM: BOX BOUNDS abc origin pp pp pp
63.763814 0.0 0.0-22.273187
0.0 62.168961 0.0-22.226571
0.0 0.0 150.967541-66.465171
ITEM: ATOMS x y z type id
-20.0891 -20.9253 -65.614 1 21239
-22.0294 -21.0859 -64.9475 2 29423
-19.767 -21.8873 -64.0923 2 10713
-21.5333 -22.1583 -63.3399 1 11789
-16.6571 -21.0061 -65.4731 1 37024
-18.2292 -20.1527 -66.0598 2 21180
-15.5328 -19.6945 -64.9124 2 33088
-11.1274 -20.3332 -63.7525 2 39285
-9.60081 -19.4315 -64.5197 1 14869
-12.48 -21.8033 -66.4531 1 41594
-8.7347 -21.0654 -63.759 2 45998
-9.50532 -19.9733 -66.3884 2 18428
-20.4079 -18.9616 -64.6597 2 4138
-20.754 -16.0158 -65.9232 2 9110
-20.8506 -17.9788 -66.4276 1 24731
-18.8856 -18.549 -63.8482 1 38864
-17.8095 -17.0815 -64.5791 2 24060
-18.0521 -16.3436 -66.3878 1 12691
-13.9253 -18.7987 -65.9978 1 47221
-13.3463 -18.0752 -64.2651 2 2535
-12.2441 -16.6428 -63.9917 1 27284
-10.4182 -17.645 -64.6306 2 18953
-9.60733 -16.2505 -65.9782 1 26886
-7.67928 -18.6562 -64.0937 2 23298
-6.76619 -17.9734 -65.8442 1 47811
-19.9368 -14.6583 -64.6361 1 18449
-21.2874 -13.3374 -65.3039 2 42472
-18.3984 -14.5956 -65.7393 2 5998
-17.4229 -12.9131 -65.8085 1 13209
-15.4486 -15.5691 -64.0279 2 42322
-14.8157 -15.4855 -65.8355 1 35774
-12.8869 -15.3242 -65.1485 2 6927
-14.7493 -13.6044 -66.4384 2 29668
-11.6665 -13.8067 -65.2152 1 6549
-10.2617 -14.5462 -66.2985 2 12027
-10.6236 -13.6957 -63.5831 2 18475
-8.5676 -15.7392 -64.2801 2 6170
-19.4941 -11.6067 -63.6401 1 26251
-21.0068 -10.5964 -63.4202 2 45348
-18.9861 -11.8316 -65.4625 2 30583
-16.0977 -12.2973 -64.6236 2 36317
-14.3082 -11.8228 -65.2135 1 21539
-14.5317 -10.2308 -66.3262 2 3225
-14.4135 -10.688 -63.585 2 3535
-11.299 -10.7813 -66.1572 1 28296
-12.4421 -11.9889 -65.3518 2 728
-9.69088 -11.9291 -66.063 2 3153
-9.69268 -10.6408 -63.6011 2 23397
-7.73318 -12.7355 -63.8237 2 3050
-8.46812 -11.1988 -64.9279 1 21929
-7.18162 -10.3251 -65.8772 2 39072
-21.1161 -9.51412 -65.1477 1 14754
-19.3369 -8.92563 -65.3467 2 7988
-16.2543 -8.3825 -64.2957 2 408
-18.0692 -8.72024 -63.8781 1 42326
-15.5906 -8.70061 -66.0103 1 47524
-14.0916 -7.50511 -65.9237 2 44847
-12.9467 -7.12634 -64.4346 1 39141
-10.1967 -8.7483 -63.8498 1 11356
-10.3583 -9.06949 -65.8302 2 29815
-12.126 -8.69945 -63.8948 2 20252
-6.72162 -8.66511 -63.5906 2 115
-9.06926 -7.3089 -63.7992 2 26325
-21.7915 -20.4412 -62.4913 2 6057
-21.5258 -20.9692 -60.6171 1 19199
-19.2936 -21.1022 -61.1707 2 36120
-18.9753 -19.2582 -60.893 1 18866
-17.6814 -19.9178 -63.1148 2 27125
-18.2579 -21.7325 -62.8285 1 6996
-13.9424 -20.5492 -63.031 2 12088
-15.4845 -20.703 -61.1502 2 3530
-15.7148 -19.7054 -62.8805 1 15571
-10.209 -21.9446 -62.7233 1 24529
-12.5333 -19.3968 -63.1302 1 41
-9.86335 -20.6484 -61.2419 2 4108
-6.70664 -20.234 -63.1644 1 26954
-6.87207 -20.6639 -61.4287 2 47285
-8.23882 -21.3671 -60.555 1 42159
-19.2909 -17.8422 -62.0563 2 24963
-20.0765 -16.0299 -61.5784 1 26924
-21.4586 -16.7373 -60.4266 2 15378
-16.895 -16.4271 -63.1031 1 2891
-16.2024 -17.6277 -60.4926 1 47141
-16.0591 -17.9208 -62.2991 2 6103
-13.1196 -16.8289 -60.9155 1 14461
-10.3946 -18.9349 -60.8469 1 45109
-12.0455 -18.4579 -61.555 2 39598
-8.06504 -16.9766 -63.0441 1 21074
-9.25887 -17.5287 -61.5889 2 6142
-6.74508 -16.6339 -61.7191 2 45317
-8.08897 -16.3395 -60.3626 1 18594
-20.8239 -15.559 -63.2254 2 17577
-19.7926 -14.6155 -60.2925 2 9528
-19.272 -13.3398 -63.1608 2 7983
-17.9514 -15.5952 -61.8697 2 405
-18.0255 -13.7961 -61.5309 1 42419
-16.2516 -13.181 -61.9631 2 36030
-13.5383 -13.2508 -62.9679 2 23797
-14.6478 -15.4838 -61.165 2 5817
-14.9446 -14.3219 -62.7526 1 45444
-12.2677 -15.8603 -62.3075 2 1413
-11.939 -14.0046 -62.2414 1 14919
-12.1376 -13.5685 -60.4516 2 47338
-8.79748 -14.2221 -63.2454 1 24321
-8.69225 -14.6309 -61.4208 2 4248
-7.71836 -13.3029 -60.3218 1 41894
-20.5699 -12.6395 -60.3636 1 33456
-21.8348 -12.6527 -61.7609 2 385
-22.073 -10.5196 -61.8037 1 12404
-21.0449 -10.7752 -60.2411 2 11755
-18.0445 -10.5688 -62.9636 2 27593
-18.661 -12.1642 -60.7043 2 42353
-16.0876 -11.3435 -62.9051 1 32856
-17.8135 -10.6359 -60.8578 1 38829
-15.9999 -10.6889 -61.1423 2 45085
-12.8938 -10.0415 -62.825 1 26694
-11.7251 -11.231 -61.883 2 8593
-9.92032 -10.7269 -61.7934 1 39279
-12.3831 -11.7481 -60.2976 1 14994
-9.246 -11.9407 -60.6083 2 32507
-21.9363 -8.72065 -61.685 2 265
-17.7641 -7.29281 -62.5687 2 38455
-13.3728 -9.19823 -61.2193 2 6710
-13.7779 -7.28151 -61.1901 1 20541
-15.6237 -8.05803 -60.419 2 2833
-14.3256 -6.82193 -63.0608 2 8185
-10.4208 -7.70549 -60.4658 1 154
-9.95771 -8.851 -61.7888 2 45707
-11.9912 -6.83146 -61.1348 2 15645
-7.43845 -7.1201 -62.9228 1 464
-7.23329 -7.06077 -61.0951 2 24117
-20.7632 -22.0511 -59.0664 2 35408
-19.4119 -19.4357 -57.2183 2 13105
-20.5371 -19.4271 -59.8276 2 17993
-17.5865 -19.7278 -58.1023 1 30141
-17.8607 -21.5477 -58.5277 2 39543
-15.6303 -20.0412 -57.9416 2 24063
-14.5839 -19.9942 -59.5177 1 33171
-12.9017 -20.7599 -59.0898 2 2432
-11.8255 -20.4864 -57.5074 1 42074
-10.9266 -22.2011 -58.1499 2 24383
-8.1976 -21.1196 -58.7923 2 5435
-8.50078 -19.3225 -58.4519 1 47629
-19.7817 -16.8425 -58.1791 2 30375
-20.9937 -17.9135 -59.0206 1 12269
-17.473 -18.966 -59.8574 2 38932
-16.1474 -16.286 -59.034 2 9783
-15.932 -16.9095 -57.2506 1 21101
-14.435 -18.166 -60.1658 2 42062
-10.3396 -18.9915 -58.9659 2 30377
-10.7865 -17.0644 -58.6234 1 31159
-12.3787 -16.2334 -59.2516 2 29905
-7.3902 -18.1556 -59.383 2 17535
-9.46832 -16.0958 -59.1592 2 23407
-22.0254 -15.1683 -57.3582 2 5688
-20.4924 -14.954 -58.4049 1 23609
-20.9794 -13.0188 -58.6011 2 9802
-16.9671 -13.5324 -59.2752 2 11640
-17.4233 -14.0444 -57.6207 1 38714
-15.5154 -14.6565 -59.7155 1 35434
-14.2912 -13.8553 -58.5833 2 178
-12.5211 -14.3812 -58.5881 1 45281
-11.1841 -13.2995 -57.7956 2 18478
-6.84688 -14.9613 -59.4892 2 38517
-7.74274 -14.2776 -57.4188 1 33486
-8.36363 -12.9484 -58.5766 2 11685
-21.6193 -10.3824 -57.3639 2 752
-19.0616 -9.96115 -57.5315 2 18887
-16.1203 -10.5085 -58.5807 2 17688
-14.1083 -11.4032 -59.6015 2 29978
-15.0743 -12.058 -58.0955 1 6121
-11.2957 -10.7308 -59.106 2 41973
-9.80975 -11.8742 -58.5502 1 5421
-9.29608 -10.7562 -57.0326 2 29590
-20.233 -9.58337 -59.08 1 21666
-21.2553 -8.1261 -58.6088 2 39128
-17.3762 -7.7308 -60.1148 1 45284
-18.5675 -9.20668 -60.1169 2 21403
-17.2482 -9.50833 -57.5016 1 20781
-17.2341 -7.67485 -58.1615 2 24600
-14.8456 -9.70501 -59.8563 1 40059
-13.6476 -8.61013 -58.4509 2 8108
-11.9704 -9.3414 -58.143 1 33086
-10.6565 -8.01046 -58.603 2 17957
-6.66476 -8.63378 -60.0493 1 274
-8.74206 -9.00338 -57.5 1 33571
-8.22626 -9.08529 -59.3201 2 17768
-22.129 -20.9997 -56.7096 2 24355
-20.2879 -20.7502 -56.3494 1 29751
-20.341 -20.4223 -54.5136 2 18103
-16.6486 -21.7726 -55.6814 2 12900
-15.3794 -19.4784 -54.7172 2 27575
-15.1128 -20.698 -56.2781 1 2974
-13.328 -21.0395 -56.2333 2 27435
-12.1594 -20.8939 -54.5731 1 11591
-10.9072 -20.2151 -55.8167 2 46288
-19.6499 -17.3907 -54.9289 2 14697
-17.2016 -18.227 -56.8713 2 1430
-19.0839 -17.6195 -56.6564 1 15521
-14.369 -17.5362 -56.6622 2 2893
-14.6967 -17.7615 -54.8115 1 12809
-13.0197 -17.1816 -54.368 2 36098
-11.4413 -17.6591 -56.9474 2 33035
-12.4765 -16.3927 -55.9811 1 44436
-10.1375 -18.4651 -55.8956 1 21616
-10.15 -17.8578 -54.1559 2 15020
-8.39914 -18.8909 -56.5682 2 23635
-7.34786 -17.3953 -56.0342 1 36659
-7.81123 -16.6895 -54.4194 2 39538
-19.0868 -14.502 -57.0023 2 2490
-19.5676 -13.536 -55.5475 1 2451
-20.8392 -14.4555 -54.5507 2 22292
-16.4883 -15.2863 -56.4405 2 42595
-16.4099 -14.9462 -54.5845 1 3344
-18.3411 -14.5152 -54.159 2 44857
-14.7864 -13.9975 -54.3074 2 26853
-13.5365 -13.3306 -55.4838 1 6811
-13.0373 -14.735 -56.6146 2 39118
-10.5252 -13.6945 -56.072 1 36009
-10.6057 -15.539 -55.5456 2 13130
-9.61723 -15.8663 -53.9426 1 24381
-7.81879 -15.9612 -57.0069 2 36645
-8.70566 -13.5134 -55.7892 2 14858
-21.5998 -10.7964 -54.6451 2 24512
-20.2372 -10.2185 -55.8742 1 15284
-19.0395 -11.7076 -55.3484 2 47632
-16.5169 -12.6104 -56.8276 2 6325
-17.1255 -11.6446 -55.3198 1 38776
-16.8739 -9.79821 -55.4739 2 33868
-13.9156 -11.7587 -56.5764 2 29837
-13.6296 -10.1779 -55.6384 1 17844
-13.7208 -11.1739 -53.9964 2 42945
-11.7151 -12.8881 -54.8719 2 21877
-9.38082 -10.2696 -54.1801 2 2853
-8.51027 -11.6079 -55.4178 1 39726
-6.65236 -11.3377 -55.7313 2 47357
-19.9257 -8.44558 -55.1189 2 47700
-20.7593 -6.99515 -56.0884 1 134
-16.085 -8.3289 -54.5512 1 8829
-13.8028 -7.29767 -57.0238 1 24341
-14.5199 -8.48945 -55.8007 2 20393
-11.9768 -9.76837 -56.2996 2 27713
-10.6365 -9.20159 -55.0264 1 14541
-11.8436 -8.46572 -53.9253 2 18458
-9.67396 -7.98002 -56.1504 2 24718
-7.04183 -8.49836 -56.6227 2 21578
-21.7967 -21.4692 -51.8051 2 3217
-21.8272 -20.9076 -53.5784 1 45689
-20.3562 -20.6524 -50.8963 1 21874
-20.6479 -19.1982 -52.1633 2 28668
-17.7653 -19.2424 -53.1922 2 3643
-16.0474 -21.7972 -52.8067 2 18613
-18.9876 -21.8715 -50.7601 2 27557
-15.0878 -20.2592 -53.1067 1 32919
-13.0754 -20.3644 -52.9322 2 29798
-12.611 -20.5917 -51.1294 1 281
-10.0349 -22.069 -52.3314 1 12721
-9.24855 -20.3275 -52.0698 2 21148
-7.01711 -20.8094 -52.4048 1 15861
-6.91105 -19.1466 -53.4846 2 250
-21.5202 -16.6281 -52.9036 2 42140
-21.1765 -17.6262 -51.2699 1 14934
-19.4438 -18.925 -53.5943 1 6009
-15.9694 -16.6404 -53.8508 2 3915
-18.7098 -16.7249 -52.5403 2 15103
-16.8826 -17.8273 -52.4442 1 426
-16.9984 -17.1059 -50.7707 2 8827
-18.5953 -16.0629 -50.7502 1 41931
-15.1633 -18.6711 -51.9916 2 23873
-13.6528 -16.3484 -51.3232 2 26883
-12.3981 -16.6207 -52.702 1 28054
-11.3468 -17.8234 -51.7277 2 33513
-9.75007 -18.5739 -52.4475 1 881
-8.45661 -17.4465 -51.6873 2 8610
-6.99513 -17.3607 -52.8975 1 9251
-19.9103 -15.8604 -53.7576 1 27679
-19.3768 -14.3183 -51.3689 2 15143
-18.3079 -13.2848 -52.5704 1 20661
-16.4603 -13.7596 -51.6543 2 46175
-13.428 -13.4886 -52.0257 2 6272
-11.2166 -15.255 -52.9081 2 31243
-11.7506 -13.4603 -52.9904 1 309
-8.49261 -15.0482 -52.6262 2 9027
-7.24114 -13.8174 -53.0562 1 20881
-8.67531 -15.7958 -50.7592 1 12281
-22.187 -12.72 -51.8744 2 45538
-21.444 -11.1748 -52.8703 1 44394
-19.6743 -11.8264 -52.2627 2 3658
-19.5046 -10.1291 -50.9371 1 40926
-21.3612 -9.80909 -51.5201 2 33555
-16.7799 -12.2289 -53.5792 2 14837
-15.1129 -12.7411 -52.8241 1 36859
-14.9082 -11.3332 -51.4922 2 6673
-13.8389 -10.1018 -52.4618 1 20406
-10.7518 -12.4004 -51.8987 2 27723
-9.28322 -11.3403 -52.4066 1 18146
-8.07026 -12.2273 -53.459 2 36168
-20.5402 -7.2811 -52.3769 2 3173
-19.1442 -8.06432 -53.4553 1 30191
-21.7036 -8.10636 -50.901 1 23491
-16.7155 -6.83281 -50.9451 2 6738
-17.47 -7.39661 -53.6231 2 5635
-18.315 -9.34914 -52.2203 2 2532
-16.7172 -8.53269 -51.705 1 47924
-15.2391 -8.80057 -52.9517 2 358
-12.6681 -9.02866 -51.4317 2 3165
-12.008 -7.46469 -52.3576 1 6534
-8.59511 -7.02958 -53.6062 2 18537
-9.21019 -9.51231 -51.7266 2 42423
-7.11631 -7.42928 -51.4154 2 47847
-8.02851 -8.59963 -52.819 1 40186
-20.937 -19.7948 -49.3908 2 45648
-17.3896 -21.2926 -49.668 1 27129
-18.2796 -19.4143 -49.6382 2 45693
-16.0387 -20.0783 -48.8007 2 14667
-18.4205 -22.1084 -48.1742 2 3560
-13.8475 -21.8848 -50.682 2 16193
-12.8769 -19.1454 -49.9978 2 3438
-11.1158 -21.6196 -50.6614 2 38618
-12.6935 -21.541 -48.3297 2 45660
-7.34137 -21.1788 -50.531 2 18308
-9.20925 -20.6365 -49.9364 1 24139
-9.51805 -22.0742 -48.7126 2 39015
-21.175 -17.787 -47.8525 2 29530
-20.0616 -16.9214 -50.0478 2 14365
-19.6359 -18.6335 -48.5048 1 35694
-18.1409 -17.6024 -47.7126 2 23808
-16.9307 -18.301 -49.0948 1 20376
-14.3044 -17.9619 -50.5247 1 33216
-15.1825 -17.5021 -48.9497 2 18108
-14.0457 -16.1747 -48.0738 1 5206
-9.88034 -19.0643 -49.1314 2 705
-12.3638 -16.7783 -48.72 2 30385
-11.2476 -17.9536 -49.778 1 15561
-10.0751 -16.3698 -49.5897 2 24217
-6.84929 -16.4738 -50.0613 2 27867
-6.8564 -17.1281 -48.3614 1 45366
-20.5177 -12.9634 -50.7044 1 29119
-21.4433 -13.7035 -49.1905 2 36195
-17.9279 -14.9957 -49.1932 2 3102
-16.434 -13.9691 -49.7128 1 9024
-13.4506 -14.5743 -50.5219 1 3326
-14.7312 -14.7003 -49.2125 2 17412
-10.6725 -13.3003 -48.0387 2 25030
-11.2153 -15.2418 -48.4738 1 42191
-11.7489 -14.1841 -50.0438 2 2287
-8.75447 -13.9792 -50.1213 2 12515
-19.4307 -11.6414 -49.7682 2 33558
-18.0752 -9.81617 -47.6691 2 3878
-18.3114 -11.6757 -48.1512 1 44169
-16.5165 -12.1583 -48.7618 2 9652
-15.432 -10.8074 -49.6642 1 10084
-13.7035 -10.5232 -49.0767 2 36522
-12.0489 -10.8738 -47.7272 1 25301
-10.353 -12.8514 -50.0069 1 22539
-11.0163 -11.0156 -49.4045 2 30663
-7.24405 -12.6271 -49.8114 1 3481
-8.75174 -11.6188 -50.5489 2 3370
-7.78464 -12.1311 -47.9243 2 45798
-7.07111 -10.3227 -48.122 1 886
-19.1584 -8.03435 -48.2662 1 24464
-19.8086 -8.585 -49.8378 2 45025
-22.1186 -7.43833 -48.0081 1 14741
-16.3442 -9.17934 -49.9473 2 21895
-17.5905 -6.96998 -48.2632 2 42195
-15.832 -7.27037 -49.1426 1 42046
-13.9304 -7.34622 -49.5787 2 27792
-12.8509 -8.78084 -49.5784 1 3124
-11.043 -8.13202 -49.657 2 18235
-9.84446 -9.54313 -49.9584 1 35746
-8.52726 -9.12937 -48.6236 2 24878
-21.3761 -19.5661 -45.7609 1 44411
-19.7586 -19.8166 -46.6622 2 45358
-18.6924 -21.325 -46.5316 1 33154
-17.0234 -20.6662 -45.7235 2 6400
-15.7085 -20.3976 -47.0511 1 29766
-14.0322 -19.3636 -46.6006 2 3253
-15.0436 -22.1838 -47.0858 2 30123
-12.4502 -20.5187 -46.7387 1 27241
-12.1145 -21.6506 -45.305 2 9047
-11.2509 -19.1315 -46.4543 2 36915
-8.14361 -20.2252 -47.0164 2 43782
-6.5892 -19.3586 -46.3226 1 22441
-8.3013 -22.1113 -47.2017 1 31709
-21.6142 -16.5904 -46.4198 1 45466
-21.4721 -17.8425 -45.0667 2 33662
-14.3525 -17.9168 -45.4301 1 9704
-15.0675 -16.5127 -46.3953 2 18013
-15.8226 -18.7174 -44.5352 2 27588
-12.6737 -17.2112 -45.0009 2 30348
-9.53797 -18.9252 -47.2114 1 28236
-10.1418 -16.5256 -44.4726 2 33145
-8.11599 -17.7095 -46.8158 2 12125
-6.3762 -18.562 -44.6504 2 9582
-20.3212 -15.2601 -46.6498 2 6373
-21.1142 -13.565 -47.2945 1 45734
-18.8523 -13.3642 -45.26 1 10626
-17.5684 -14.6276 -46.117 2 21345
-18.4542 -15.6857 -47.4026 1 24801
-15.9283 -15.1214 -45.3641 1 3651
-14.6744 -13.7766 -45.1001 2 27278
-13.0455 -13.3924 -46.1222 1 15871
-12.781 -14.9634 -47.1511 2 46352
-10.2926 -15.7995 -46.8154 2 12742
-11.7164 -15.7588 -45.4344 1 34146
-11.7869 -13.9309 -44.7763 2 19177
-8.59474 -15.9059 -46.0275 1 6606
-8.83864 -13.7575 -45.5889 2 39497
-7.16415 -15.5709 -47.3344 2 20638
-7.44593 -15.6873 -44.596 2 29635
-19.3884 -12.685 -47.013 2 5963
-18.2466 -11.7112 -44.5551 2 24055
-15.8133 -10.5446 -45.5851 2 26897
-13.2075 -11.7532 -46.7491 2 13178
-10.3189 -10.9943 -46.4834 2 11963
-10.0219 -10.0079 -44.9801 1 26984
-9.38499 -12.5875 -46.8828 1 21341
-6.5419 -10.1977 -46.236 2 42330
-21.37 -8.26825 -44.856 1 36686
-20.4116 -7.23378 -47.174 2 17153
-19.7207 -9.11206 -44.553 2 42460
-17.3253 -7.98312 -45.6039 2 10052
-16.6136 -9.29275 -46.5906 1 12556
-13.607 -7.91546 -46.6481 1 16019
-13.9423 -8.17706 -44.7591 2 35437
-15.3247 -8.12932 -47.4276 2 18852
-10.0307 -7.84821 -46.2395 2 33265
-12.3037 -8.95548 -47.56 2 34448
-7.34672 -7.39639 -46.2292 2 22010
-6.98773 -8.87144 -44.9705 1 22179
-8.68581 -7.66595 -47.4956 1 21984
-21.422 -20.7886 -44.3388 2 18340
-20.5916 -20.3427 -42.6463 1 30561
-19.7921 -21.8857 -42.1463 2 33800
-22.1134 -20.419 -41.4281 2 19025
-16.4216 -20.7105 -43.888 1 9534
-16.6637 -19.706 -42.1604 2 1998
-14.7988 -21.652 -44.1985 2 10853
-13.0711 -21.2846 -43.6508 1 15394
-12.7455 -19.4964 -43.3957 2 36772
-9.93439 -19.6664 -44.1535 2 27910
-7.13627 -21.2766 -43.6167 2 10007
-9.04474 -21.1784 -43.9735 1 6571
-21.747 -17.489 -43.1479 1 23734
-20.3371 -18.5358 -42.4615 2 35175
-19.7145 -16.0381 -41.371 2 45605
-17.8996 -17.3813 -42.5167 2 6912
-16.1342 -17.918 -42.8733 1 6144
-14.6199 -17.3787 -42.0947 2 745
-12.9712 -18.2984 -41.7 1 7096
-11.2449 -18.4246 -44.2533 1 21576
-11.4398 -17.4956 -42.448 2 39572
-7.6798 -19.0168 -42.1154 2 15692
-21.8353 -15.6362 -43.3732 2 31027
-20.7595 -14.1799 -42.9583 1 44781
-18.9824 -14.5802 -43.6927 2 39417
-15.9774 -15.6507 -43.5818 2 35823
-18.0011 -15.5355 -42.497 1 36386
-15.0572 -15.3837 -41.7981 1 6304
-13.7462 -14.0533 -42.1399 2 6725
-10.3354 -15.9838 -42.5633 1 33274
-10.3385 -14.1699 -42.3539 2 33105
-7.30503 -13.6181 -44.4384 1 39859
-7.38202 -14.1241 -42.5792 2 3593
-20.7306 -12.8246 -44.4355 2 30272
-21.8584 -10.3834 -44.373 2 12808
-19.9264 -11.0293 -43.8635 1 36021
-19.8914 -10.971 -42.0297 2 24283
-16.6706 -10.9214 -44.0177 1 45384
-14.2056 -12.8515 -43.5152 1 14789
-15.6054 -11.785 -42.7615 2 43967
-12.7701 -11.5879 -43.9102 2 20617
-14.9364 -10.7744 -41.3243 1 21089
-11.1947 -12.5724 -43.345 1 13031
-9.70837 -11.5945 -43.7978 2 19813
-8.34583 -11.033 -42.5504 1 18376
-6.91276 -11.8312 -43.8178 2 29475
-6.61217 -10.2594 -41.8926 2 30878
-22.1125 -7.36825 -41.532 1 30041
-17.3786 -9.5127 -42.9905 2 44658
-18.2078 -8.13368 -44.0457 1 7014
-18.678 -6.71224 -43.0355 2 18783
-13.0337 -9.60465 -43.785 1 27731
-13.7884 -9.44447 -42.0691 2 34238
-11.2673 -9.09746 -43.8873 2 848
-11.5636 -7.57419 -41.7385 2 42922
-9.96127 -8.13205 -42.6163 1 30639
-9.51549 -9.53546 -41.311 2 24700
-6.56875 -6.81534 -42.4405 1 9699
-8.57311 -9.19136 -44.0184 2 833
-8.46783 -7.16681 -41.7255 2 12072
-19.7159 -19.3329 -39.8986 2 15875
-21.2868 -20.3211 -39.7956 1 18494
-21.2041 -22.1343 -39.3676 2 19138
-16.6057 -20.208 -39.1421 2 44972
-17.3513 -21.8271 -38.4176 1 811
-15.6339 -20.2083 -40.7255 1 45639
-13.7996 -19.8727 -40.6185 2 8957
-15.5934 -22.1137 -40.9608 2 36897
-12.703 -20.6626 -39.3152 1 5821
-11.1047 -21.2096 -40.1904 2 37193
-12.1256 -19.3412 -38.1803 2 33067
-9.3839 -20.7833 -39.6845 1 13174
-7.80771 -21.6184 -40.2785 2 32512
-20.6977 -16.8925 -39.0737 2 18828
-19.1072 -17.822 -40.9188 1 34026
-17.5765 -17.3444 -39.6324 2 45388
-17.1131 -18.5963 -38.3702 1 15426
-12.4447 -17.2284 -40.0107 2 12187
-10.9496 -18.0596 -39.1001 1 28914
-9.05456 -16.1848 -41.2089 2 993
-6.41053 -17.4778 -39.8227 2 18642
-9.51417 -18.8599 -40.0283 2 35918
-8.05026 -17.7599 -40.8998 1 6171
-20.9451 -13.6882 -41.1633 2 3090
-20.3911 -15.0811 -39.9363 1 18551
-21.7298 -14.254 -38.5337 2 8425
-16.9972 -14.663 -41.2774 2 10267
-18.7664 -14.4368 -39.1534 2 45808
-16.9228 -15.2851 -39.4178 1 26771
-16.5659 -13.3362 -39.0641 2 21435
-13.3744 -15.8963 -39.2068 1 39214
-15.0733 -15.4087 -39.9113 2 11732
-12.8336 -13.0602 -40.7094 1 18304
-12.2619 -14.4425 -39.5867 2 9678
-10.6287 -14.7333 -38.5608 1 41829
-6.60183 -14.0974 -38.4947 1 27099
-9.24518 -13.8994 -39.2859 2 27765
-8.66694 -14.1662 -41.0874 1 36526
-6.81334 -14.3561 -40.2429 2 34282
-20.5946 -11.9117 -40.583 1 27866
-21.9994 -11.4664 -39.4851 2 15443
-18.3733 -10.0565 -41.1753 1 40089
-19.0195 -11.4174 -39.6659 2 10275
-18.3484 -12.7906 -38.5002 1 47006
-16.6724 -10.2363 -40.5271 2 33682
-14.1967 -11.9801 -40.0934 2 27048
-15.2372 -12.2853 -38.4696 1 8864
-11.6932 -11.801 -41.2704 2 19092
-10.9982 -10.2687 -40.3 1 3804
-10.27 -11.0256 -38.6509 2 3003
-8.72186 -12.1318 -41.0778 2 25577
-8.52494 -11.699 -39.2523 1 4106
-7.10203 -12.2866 -38.2097 2 15778
-7.5668 -9.87158 -39.1504 2 30560
-22.1807 -8.58267 -40.0232 2 39613
-20.3562 -7.05201 -38.3005 2 10127
-22.1763 -7.56442 -38.4267 1 39984
-19.2868 -8.58446 -40.7071 2 45380
-18.8955 -6.80073 -41.1513 1 34539
-17.0113 -6.93535 -40.5171 2 39995
-16.465 -8.54265 -39.6376 1 741
-13.1758 -8.07563 -40.8862 1 43884
-14.6059 -8.46206 -39.673 2 28430
-12.061 -8.86836 -39.4322 2 29760
-10.9886 -7.57599 -38.3108 1 25334
-8.25917 -8.38976 -40.3264 1 9541
-9.25269 -7.33383 -38.895 2 29792
-6.38743 -7.84331 -40.517 2 12795
-19.6682 -20.0904 -36.4803 1 5869
-21.2976 -21.3227 -36.5743 2 39357
-18.9853 -21.7215 -37.496 2 22183
-16.5762 -21.4542 -36.5238 2 30045
-15.5671 -20.0086 -35.9222 1 1011
-13.6949 -20.4755 -35.7628 2 18958
-10.8923 -21.2841 -35.4728 2 27047
-7.64502 -19.8317 -37.1156 1 18484
-8.96887 -20.848 -37.8289 2 39893
-7.04749 -20.8196 -35.6374 2 45572
-20.9781 -18.6913 -36.3452 2 40035
-19.9282 -17.5336 -37.431 1 30396
-18.5481 -18.8027 -37.1532 2 28163
-16.5016 -16.312 -35.0493 2 31272
-15.7043 -18.4713 -37.1193 2 36698
-15.37 -16.6854 -36.5912 1 3821
-13.7211 -17.6118 -35.5105 2 38790
-12.6195 -18.9778 -36.3774 1 9119
-10.4799 -16.6435 -38.0045 2 30157
-10.9622 -18.5931 -35.6421 2 25283
-9.78053 -17.291 -36.4109 1 24056
-6.66094 -17.1516 -37.9569 1 15001
-8.09836 -18.0694 -36.9348 2 42228
-9.07245 -16.2096 -35.1488 2 3853
-19.7372 -15.9281 -36.444 2 1120
-20.9768 -14.4127 -36.8127 1 9074
-16.823 -15.8086 -37.4408 2 21982
-17.9658 -15.3555 -36.0123 1 47499
-13.8918 -15.748 -37.4561 2 38935
-13.2286 -14.3495 -36.5184 1 3759
-11.4513 -14.2077 -36.913 2 18182
-10.4788 -13.2218 -35.5611 1 35469
-7.59222 -14.9851 -35.5843 1 36676
-8.78556 -13.6047 -36.0974 2 2118
-7.27252 -15.4774 -37.4666 2 14748
-19.9593 -12.6005 -37.1565 2 39745
-21.0397 -11.0464 -37.7981 1 39394
-17.5178 -11.6389 -37.0538 2 27065
-18.5994 -12.0967 -35.5925 1 11641
-16.7184 -9.96309 -36.7778 1 12121
-14.3627 -12.7162 -36.836 2 3342
-15.3718 -10.5273 -38.1135 2 31388
-13.6477 -11.1072 -35.831 1 1254
-15.1457 -9.89119 -35.5365 2 39857
-12.7357 -10.4994 -37.3556 2 39885
-11.5135 -11.7064 -35.6285 2 45900
-10.7604 -10.5555 -36.9158 1 12914
-7.48212 -12.0902 -36.2307 1 15261
-8.84917 -10.6234 -36.4452 2 17998
-20.4107 -9.304 -37.6582 2 34285
-19.0953 -8.16676 -37.1877 1 39711
-17.3948 -8.60926 -38.0545 2 20328
-18.2116 -9.1562 -35.7364 2 15908
-13.7744 -9.21652 -38.1437 1 21091
-13.9205 -7.65081 -36.9445 2 622
-14.3209 -8.21475 -35.1227 1 6814
-15.8357 -7.00808 -35.287 2 46212
-10.7654 -8.4859 -36.6663 2 45178
-6.4353 -7.21569 -35.8042 1 9516
-22.1592 -21.16 -33.651 2 40030
-20.3349 -20.442 -33.2958 1 16101
-19.1785 -20.9366 -34.7383 2 42582
-16.1728 -21.9994 -33.69 2 1090
-16.0875 -19.2758 -34.3796 2 7718
-17.3712 -19.7042 -31.8767 2 42678
-15.8767 -20.3477 -32.8794 1 36664
-14.1994 -19.5728 -32.1766 2 33737
-12.7613 -20.7961 -32.0352 1 4466
-12.6947 -21.9744 -35.0087 1 12014
-10.4449 -19.7938 -34.2506 1 6131
-11.4702 -19.4782 -32.5845 2 36257
-6.47264 -20.3503 -32.4354 2 6322
-7.67716 -20.8181 -33.8658 1 37149
-8.79759 -19.4243 -33.6317 2 33855
-20.2693 -18.6544 -33.299 2 6155
-21.4912 -17.2911 -33.0491 1 30601
-17.2553 -16.4406 -31.8808 2 18808
-14.4304 -16.6275 -32.8959 2 39928
-12.9439 -16.5185 -34.219 1 17216
-11.372 -16.5949 -33.2975 2 9407
-6.43819 -17.2443 -32.0844 2 15552
-9.32467 -16.7854 -31.9026 2 18743
-21.4883 -14.0976 -34.9874 2 15648
-20.1629 -15.7757 -33.0443 2 47315
-20.0184 -13.8719 -33.5354 1 24846
-21.625 -13.251 -32.6661 2 720
-18.3863 -13.8647 -34.9744 2 46185
-16.0618 -15.8554 -33.3146 1 37184
-18.6193 -13.3837 -32.2733 2 24973
-15.7521 -14.0264 -33.1341 2 6992
-13.5414 -14.736 -34.7575 2 5903
-13.9481 -13.4459 -33.4078 1 8746
-12.8757 -13.7527 -31.8827 2 7023
-10.5688 -13.9251 -33.808 2 24802
-9.69199 -15.6746 -33.4222 1 12359
-11.0748 -12.9622 -32.209 1 13106
-7.87664 -14.82 -33.371 2 18473
-7.90032 -12.95 -32.8805 1 12266
-22.1719 -10.1192 -33.5338 2 3155
-21.9694 -11.6966 -34.5795 1 39341
-20.1101 -11.9359 -34.4048 2 9287
-17.0113 -12.6315 -33.1628 1 43104
-17.398 -11.2851 -34.4472 2 6505
-15.9233 -11.6659 -31.8903 2 21643
-13.8862 -11.6897 -34.0157 2 18065
-12.7747 -10.4307 -33.0345 1 20581
-11.2208 -11.1924 -32.2941 2 21540
-8.06981 -11.7189 -34.3198 2 33947
-8.38336 -9.85567 -34.7431 1 27804
-20.6662 -9.70274 -32.358 1 41569
-20.8162 -7.79718 -32.6761 2 13357
-15.9822 -6.70199 -33.1751 1 6716
-18.8675 -9.67258 -32.5112 2 43623
-17.857 -9.46508 -33.9918 1 39486
-16.3865 -8.706 -33.0304 2 18728
-13.7764 -7.11433 -33.6434 2 18702
-12.7271 -9.31515 -34.7329 2 985
-10.0385 -9.5204 -32.0177 1 43374
-11.2197 -8.12805 -34.9226 1 9451
-11.3067 -7.94445 -31.9855 2 5017
-9.92787 -9.24306 -33.8937 2 45293
-8.03841 -9.46811 -31.963 2 5697
-7.31664 -8.45238 -34.58 2 6977
-6.51277 -8.43586 -32.7285 1 41476
-19.4697 -21.5383 -29.112 2 36550
-19.9972 -21.474 -31.668 2 7280
-21.1398 -21.5313 -30.0452 1 10764
-21.658 -19.6581 -29.8219 2 44552
-17.7531 -19.5707 -29.3041 2 36013
-18.1909 -21.0228 -30.5009 1 25499
-14.5854 -21.9242 -29.7309 1 22294
-12.7478 -21.4553 -30.2793 2 42112
-15.1739 -21.7764 -31.4796 2 33122
-10.0363 -22.196 -31.0495 2 12685
-7.04006 -20.4694 -30.5914 1 24856
-8.47521 -19.21 -30.4856 2 42683
-7.55313 -22.0514 -29.9514 2 45015
-22.2573 -17.6075 -31.2777 2 30737
-20.8273 -18.0783 -29.8869 1 34104
-19.1684 -17.6742 -30.6519 2 24158
-19.087 -16.0815 -31.5999 1 21181
-17.2978 -18.1658 -30.8937 1 1516
-15.1407 -16.58 -28.8878 1 34416
-15.5477 -17.8646 -30.1898 2 36660
-14.2351 -17.8418 -31.5377 1 42439
-12.7316 -17.4502 -30.6749 2 9492
-9.53084 -19.1162 -28.8839 1 37074
-11.9971 -16.7483 -28.9427 1 33651
-11.0375 -17.8218 -31.5857 1 25051
-10.5554 -17.6806 -29.5939 2 32755
-7.97317 -17.4364 -30.9464 1 34089
-7.35138 -17.0653 -29.2548 2 45515
-22.1171 -12.9281 -30.9024 1 23654
-22.1797 -14.8516 -30.1973 2 28523
-19.3103 -14.8446 -30.2324 2 46505
-21.0218 -14.9596 -28.7614 1 39424
-17.3175 -13.0922 -29.4724 2 28453
-18.954 -12.9182 -30.4788 1 34249
-15.0041 -14.8884 -29.6607 2 39390
-13.5066 -13.9853 -30.1297 1 18784
-11.9381 -14.9164 -29.5919 2 25147
-9.34154 -13.5215 -31.6272 2 26227
-6.8414 -14.4386 -29.9169 2 1200
-8.42127 -13.2984 -30.0656 1 30324
-9.18126 -14.4856 -28.856 2 42005
-20.7393 -12.6201 -29.6656 2 34133
-21.4222 -9.81858 -30.5935 2 26907
-20.7822 -10.7862 -29.1484 1 39221
-19.0171 -10.9161 -30.1049 2 6707
-16.0672 -10.002 -29.7852 2 27570
-15.8537 -12.1402 -30.0359 1 12719
-14.0501 -12.2773 -29.6471 2 12865
-10.1215 -10.9119 -28.8074 1 18084
-11.1228 -12.4269 -29.2563 2 3398
-7.00789 -12.3056 -31.3899 2 33005
-7.18972 -10.5237 -30.5835 1 15064
-8.36513 -11.5109 -29.4664 2 28618
-22.0787 -7.28077 -31.4105 1 9051
-21.1418 -7.0943 -29.8218 2 10068
-17.9564 -7.80935 -29.9689 2 6420
-17.9686 -9.60823 -29.3134 1 37284
-15.5762 -9.67689 -31.6424 1 9099
-13.3302 -7.53563 -31.6303 1 25576
-13.719 -9.40895 -31.721 2 40475
-15.3148 -6.91377 -31.3471 2 32672
-12.6351 -7.30552 -29.7313 2 16110
-10.1653 -9.5236 -30.1605 2 36832
-10.8354 -7.88935 -29.5417 1 15714
-7.03684 -9.08361 -29.2737 2 34750
-6.71333 -7.06055 -31.4051 2 46142
-21.6514 -19.1848 -26.5308 2 16928
-22.2165 -21.7788 -28.3558 2 12993
-18.0168 -20.8904 -26.8092 2 44983
-16.7438 -20.0518 -27.8912 1 30759
-13.1124 -20.0847 -27.0782 2 187
-15.3344 -21.1558 -28.3661 2 12118
-11.3002 -20.2364 -26.9067 1 12764
-10.3972 -20.7946 -28.5614 2 6280
-8.17606 -21.709 -26.8681 2 18033
-7.63109 -20.1741 -25.885 1 18554
-8.15089 -19.1924 -27.7048 2 2735
-20.5824 -17.4632 -26.7004 1 3889
-21.0178 -16.9482 -28.4837 2 623
-21.853 -16.3834 -25.8476 2 3547
-18.8278 -17.4949 -26.0167 2 43155
-17.0874 -17.2016 -26.3534 1 10041
-16.8596 -16.3009 -28.0647 2 36033
-15.9589 -18.6428 -26.6286 2 40348
-13.9835 -18.5931 -26.6326 1 10141
-13.7039 -17.2862 -27.9362 2 15800
-10.5662 -18.404 -27.0526 2 32878
-11.7477 -16.2996 -25.7092 1 13391
-9.12218 -17.6661 -26.0329 1 43179
-7.87452 -16.3043 -26.6795 2 46327
-6.47856 -18.4738 -28.1279 1 24939
-19.1565 -13.5262 -26.0348 1 18529
-19.6117 -14.6626 -27.6061 2 25230
-17.3524 -13.6897 -26.8886 2 45665
-17.6773 -14.7287 -28.5122 1 45154
-12.702 -13.2319 -27.2882 2 45507
-11.2485 -15.7571 -27.388 2 41790
-10.8884 -13.9908 -28.1813 1 11704
-9.9209 -13.4822 -26.5711 2 24558
-7.52183 -15.4216 -28.3747 1 27839
-6.53793 -14.1876 -27.1195 2 7148
-19.7865 -11.7585 -26.5507 2 6882
-21.7346 -12.5788 -26.5786 1 6396
-22.1572 -11.1282 -27.8457 2 34327
-18.6876 -10.2584 -26.1491 1 19306
-17.3518 -9.88507 -27.5105 2 42972
-14.394 -10.7258 -27.1603 2 36840
-12.9249 -11.6575 -28.2259 1 2841
-11.7611 -10.1975 -27.9263 2 9767
-9.23807 -10.0849 -27.3033 2 36622
-20.3099 -8.0419 -27.2841 1 18644
-21.9896 -7.22057 -26.9589 2 6772
-19.7924 -9.45558 -28.2346 2 36432
-19.5593 -8.61623 -25.6317 2 12787
-15.5441 -9.36405 -27.6802 1 36371
-15.3497 -7.53734 -28.1614 2 7407
-15.4065 -8.56724 -25.7552 2 10503
-15.0768 -6.76614 -26.455 1 6646
-10.6651 -7.57026 -27.692 2 18463
-10.7272 -9.11824 -26.6539 1 12741
-12.3641 -8.85181 -25.7336 2 28250
-7.37924 -9.74554 -27.5324 1 821
-6.69874 -8.65463 -26.2513 2 38912
-6.71877 -6.7277 -26.5496 1 39609
-21.5465 -19.7609 -24.6995 1 39954
-20.179 -21.0995 -24.2097 2 34162
-18.0654 -21.05 -24.9735 1 24009
-17.8942 -19.5535 -23.9837 2 23815
-16.1798 -21.2283 -24.3103 2 43310
-15.961 -19.7266 -23.0937 1 509
-14.0507 -19.9108 -23.6666 2 33093
-12.6666 -21.0458 -23.0418 1 12791
-10.5832 -21.0426 -25.4439 2 43665
-9.89656 -20.1377 -23.6965 1 7366
-10.8523 -21.6231 -22.8389 2 34073
-11.6143 -19.2904 -22.9195 2 16423
-8.12508 -21.4893 -24.2473 2 20912
-7.60973 -21.666 -22.4537 1 10131
-20.8859 -18.0064 -24.2056 2 19480
-21.6407 -16.3309 -23.8736 1 18616
-19.147 -18.2479 -23.5613 1 496
-16.3385 -16.4398 -22.9623 1 9639
-18.1749 -16.8547 -22.7047 2 4293
-16.3649 -16.198 -24.8695 2 16005
-13.277 -18.1399 -23.3929 1 25094
-13.0478 -17.6356 -25.2566 2 39453
-15.2296 -17.9979 -22.697 2 31228
-10.0066 -16.6797 -24.7872 2 7145
-12.5198 -16.6556 -22.5088 2 39762
-8.68157 -19.0385 -24.8475 2 6890
-7.40853 -16.1766 -23.8448 2 6855
-9.12572 -16.2357 -23.117 1 25606
-21.1592 -14.9866 -22.6708 2 36320
-20.8565 -13.7462 -25.1554 2 6127
-21.176 -13.2256 -23.3786 1 18886
-16.5394 -14.3772 -25.3588 1 30569
-18.018 -13.625 -24.3883 2 15047
-13.3117 -13.3391 -25.5308 1 34171
-15.0848 -13.3629 -24.8567 2 22788
-14.9202 -13.2428 -22.8549 1 3726
-13.0097 -13.1918 -22.5773 2 1730
-12.4792 -14.8685 -24.7873 2 21945
-10.077 -14.4296 -23.2396 2 34767
-12.0271 -14.7931 -22.8167 1 18186
-9.81025 -13.3962 -24.7855 1 13119
-6.89985 -15.0915 -25.4092 1 44039
-7.9144 -13.5896 -24.7415 2 12470
-19.7508 -12.0667 -22.8528 2 29710
-17.6175 -10.5724 -24.5766 2 9217
-17.8604 -12.0496 -23.4327 1 5894
-13.7709 -10.0473 -25.4211 1 15811
-13.0026 -11.6522 -24.7707 2 36685
-11.9448 -11.5161 -22.9375 1 38591
-10.2157 -11.7249 -24.1154 2 37173
-9.33113 -10.18 -23.868 1 1789
-7.59166 -10.7593 -24.3618 2 36430
-7.26613 -12.4472 -23.4768 1 33619
-21.9869 -9.5182 -23.387 2 31118
-19.28 -7.37959 -24.119 1 4494
-21.1672 -6.75655 -24.0455 2 9488
-17.2327 -7.53482 -23.5396 2 30650
-16.316 -9.13935 -23.965 1 27634
-14.5837 -9.6691 -23.5612 2 31442
-12.8458 -7.27805 -22.8538 2 34367