9160
 Atoms. Timestep: 0
1 -20.0891 -20.9253 -65.614
2 -22.0294 -21.0859 -64.9475
2 -19.767 -21.8873 -64.0923
1 -21.5333 -22.1583 -63.3399
1 -16.6571 -21.0061 -65.4731
2 -18.2292 -20.1527 -66.0598
2 -15.5328 -19.6945 -64.9124
2 -11.1274 -20.3332 -63.7525
1 -12.48 -21.8033 -66.4531
2 -20.4079 -18.9616 -64.6597
2 -20.754 -16.0158 -65.9232
1 -20.8506 -17.9788 -66.4276
1 -18.8856 -18.549 -63.8482
2 -17.8095 -17.0815 -64.5791
1 -18.0521 -16.3436 -66.3878
1 -13.9253 -18.7987 -65.9978
2 -13.3463 -18.0752 -64.2651
1 -12.2441 -16.6428 -63.9917
1 -19.9368 -14.6583 -64.6361
2 -21.2874 -13.3374 -65.3039
2 -18.3984 -14.5956 -65.7393
1 -17.4229 -12.9131 -65.8085
2 -15.4486 -15.5691 -64.0279
1 -14.8157 -15.4855 -65.8355
2 -12.8869 -15.3242 -65.1485
2 -14.7493 -13.6044 -66.4384
1 -11.6665 -13.8067 -65.2152
2 -10.6236 -13.6957 -63.5831
1 -19.4941 -11.6067 -63.6401
2 -21.0068 -10.5964 -63.4202
2 -18.9861 -11.8316 -65.4625
2 -16.0977 -12.2973 -64.6236
1 -14.3082 -11.8228 -65.2135
2 -14.5317 -10.2308 -66.3262
2 -14.4135 -10.688 -63.585
1 -11.299 -10.7813 -66.1572
2 -12.4421 -11.9889 -65.3518
1 -21.1161 -9.51412 -65.1477
2 -19.3369 -8.92563 -65.3467
2 -16.2543 -8.3825 -64.2957
1 -18.0692 -8.72024 -63.8781
1 -15.5906 -8.70061 -66.0103
2 -14.0916 -7.50511 -65.9237
1 -12.9467 -7.12634 -64.4346
2 -12.126 -8.69945 -63.8948
2 -21.7915 -20.4412 -62.4913
1 -21.5258 -20.9692 -60.6171
2 -19.2936 -21.1022 -61.1707
1 -18.9753 -19.2582 -60.893
2 -17.6814 -19.9178 -63.1148
1 -18.2579 -21.7325 -62.8285
2 -13.9424 -20.5492 -63.031
2 -15.4845 -20.703 -61.1502
1 -15.7148 -19.7054 -62.8805
1 -12.5333 -19.3968 -63.1302
2 -19.2909 -17.8422 -62.0563
1 -20.0765 -16.0299 -61.5784
2 -21.4586 -16.7373 -60.4266
1 -16.895 -16.4271 -63.1031
1 -16.2024 -17.6277 -60.4926
2 -16.0591 -17.9208 -62.2991
1 -13.1196 -16.8289 -60.9155
2 -12.0455 -18.4579 -61.555
2 -20.8239 -15.559 -63.2254
2 -19.7926 -14.6155 -60.2925
2 -19.272 -13.3398 -63.1608
2 -17.9514 -15.5952 -61.8697
1 -18.0255 -13.7961 -61.5309
2 -16.2516 -13.181 -61.9631
2 -13.5383 -13.2508 -62.9679
2 -14.6478 -15.4838 -61.165
1 -14.9446 -14.3219 -62.7526
2 -12.2677 -15.8603 -62.3075
1 -11.939 -14.0046 -62.2414
2 -12.1376 -13.5685 -60.4516
1 -20.5699 -12.6395 -60.3636
2 -21.8348 -12.6527 -61.7609
1 -22.073 -10.5196 -61.8037
1 -16.0876 -11.3435 -62.9051
1 -17.8135 -10.6359 -60.8578
2 -15.9999 -10.6889 -61.1423
1 -12.8938 -10.0415 -62.825
2 -11.7251 -11.231 -61.883
1 -12.3831 -11.7481 -60.2976
2 -21.9363 -8.72065 -61.685
2 -17.7641 -7.29281 -62.5687
2 -13.3728 -9.19823 -61.2193
1 -13.7779 -7.28151 -61.1901
2 -15.6237 -8.05803 -60.419
2 -14.3256 -6.82193 -63.0608
2 -11.9912 -6.83146 -61.1348
2 -20.7632 -22.0511 -59.0664
1 -19.4119 -19.4357 -57.2183
2 -20.5371 -19.4271 -59.8276
1 -17.5865 -19.7278 -58.1023
2 -17.8607 -21.5477 -58.5277
2 -15.6303 -20.0412 -57.9416
1 -14.5839 -19.9942 -59.5177
2 -12.9017 -20.7599 -59.0898
1 -11.8255 -20.4864 -57.5074
2 -10.9266 -22.2011 -58.1499
2 -19.7817 -16.8425 -58.1791
1 -20.9937 -17.9135 -59.0206
2 -17.473 -18.966 -59.8574
1 -16.1474 -16.286 -59.034
1 -15.932 -16.9095 -57.2506
2 -14.435 -18.166 -60.1658
1 -10.7865 -17.0644 -58.6234
2 -12.3787 -16.2334 -59.2516
2 -22.0254 -15.1683 -57.3582
1 -20.4924 -14.954 -58.4049
2 -20.9794 -13.0188 -58.6011
2 -16.9671 -13.5324 -59.2752
1 -17.4233 -14.0444 -57.6207
1 -15.5154 -14.6565 -59.7155
2 -14.2912 -13.8553 -58.5833
1 -12.5211 -14.3812 -58.5881
2 -11.1841 -13.2995 -57.7956
2 -21.6193 -10.3824 -57.3639
2 -19.0616 -9.96115 -57.5315
2 -16.1203 -10.5085 -58.5807
2 -14.1083 -11.4032 -59.6015
1 -15.0743 -12.058 -58.0955
2 -11.2957 -10.7308 -59.106
1 -20.233 -9.58337 -59.08
2 -21.2553 -8.1261 -58.6088
1 -17.3762 -7.7308 -60.1148
2 -18.5675 -9.20668 -60.1169
1 -17.2482 -9.50833 -57.5016
2 -17.2341 -7.67485 -58.1615
1 -14.8456 -9.70501 -59.8563
2 -13.6476 -8.61013 -58.4509
1 -11.9704 -9.3414 -58.143
2 -10.6565 -8.01046 -58.603
2 -22.129 -20.9997 -56.7096
1 -20.2879 -20.7502 -56.3494
1 -15.1128 -20.698 -56.2781
2 -13.328 -21.0395 -56.2333
2 -17.2016 -18.227 -56.8713
1 -19.0839 -17.6195 -56.6564
2 -14.369 -17.5362 -56.6622
2 -11.4413 -17.6591 -56.9474
2 -19.0868 -14.502 -57.0023
2 -16.4883 -15.2863 -56.4405
2 -13.0373 -14.735 -56.6146
2 -16.5169 -12.6104 -56.8276
2 -13.9156 -11.7587 -56.5764
1 -13.8028 -7.29767 -57.0238
2 -11.9768 -9.76837 -56.2996
2 -19.8562 -4.50014 -65.2242
1 -20.862 -4.93966 -63.7438
2 -16.8656 -5.55615 -65.194
1 -18.5623 -5.409 -66.3636
1 -16.1671 -3.82975 -64.9583
1 -16.241 -6.51773 -63.4506
2 -14.5281 -4.35516 -64.1198
1 -12.7209 -3.73001 -64.1231
2 -11.6362 -5.85073 -64.7075
2 -20.1053 -1.47064 -65.1094
1 -20.8462 -3.02111 -66.1168
1 -18.6213 -1.42583 -64.0972
2 -17.2924 -2.78879 -63.9016
2 -13.3719 -1.89166 -63.9897
1 -12.6758 -0.649892 -65.2748
2 -11.5984 -3.22721 -65.4912
2 -10.7914 -0.486252 -65.3527
1 -20.9382 0.00575997 -66.099
2 -17.7666 0.1154 -64.516
1 -16.5048 0.472325 -65.8342
2 -14.724 0.945625 -65.2762
2 -12.5137 0.760204 -63.751
2 -20.7078 -6.62531 -62.8565
1 -19.7715 -6.06951 -61.3443
2 -19.2632 -4.55055 -62.3397
2 -16.3524 -4.97738 -62.275
1 -14.4704 -4.47836 -62.0782
2 -14.5308 -5.56368 -60.3486
2 -12.5856 -4.21883 -62.3363
1 -11.2337 -4.92553 -61.0247
2 -21.4627 -3.17866 -63.039
2 -21.8332 -1.63238 -60.7365
1 -20.3845 -2.80665 -61.4752
2 -19.0088 -1.72803 -62.2361
1 -17.5957 -3.56903 -62.1785
2 -17.2416 -2.91418 -60.3673
2 -14.7542 -2.67123 -61.6519
1 -13.7923 -1.09351 -62.4169
2 -12.1031 -0.920967 -61.5809
1 -11.091 -1.71331 -60.2102
2 -20.2397 0.591283 -61.2371
1 -18.6566 -0.382094 -60.9338
2 -16.8778 -0.268083 -60.6147
1 -15.5089 1.04686 -60.5666
2 -14.5391 0.593324 -62.2652
1 -11.2469 0.729854 -62.2317
2 -21.3702 -6.08921 -60.1723
1 -20.8138 -4.75901 -58.5952
2 -19.7913 -5.98573 -57.3887
2 -19.8848 -3.76629 -59.9022
2 -18.513 -6.29849 -60.0011
1 -17.9917 -5.98369 -57.562
2 -17.2621 -4.54078 -58.4849
1 -15.443 -4.92707 -58.8378
2 -15.0784 -5.93687 -57.2582
1 -12.8797 -3.58267 -58.3267
2 -11.948 -4.87988 -59.1644
1 -10.8497 -6.05928 -58.2399
2 -19.7927 -3.3239 -57.4969
2 -19.4111 -0.750388 -59.2013
1 -18.3353 -2.94112 -58.7477
2 -17.4813 -1.61758 -57.3388
1 -15.6065 -2.01178 -60.0566
2 -14.6787 -3.20721 -58.7539
2 -14.6027 -0.528417 -59.6675
2 -12.0639 -1.87308 -58.6156
1 -21.3183 -0.00296297 -59.7469
1 -18.4585 0.0429363 -57.6595
2 -16.7059 0.977978 -57.5011
1 -13.4301 -0.458303 -58.2616
2 -12.1547 0.899732 -58.4394
2 -12.211 -6.3703 -56.8333
2 -14.2917 -0.887196 -56.6916
2 -12.3699 -3.41963 -56.4688
1 -15.5499 0.460598 -56.1778
2 -20.341 -20.4223 -54.5136
1 -16.6486 -21.7726 -55.6814
2 -15.3794 -19.4784 -54.7172
1 -12.1594 -20.8939 -54.5731
2 -10.9072 -20.2151 -55.8167
2 -19.6499 -17.3907 -54.9289
1 -14.6967 -17.7615 -54.8115
2 -13.0197 -17.1816 -54.368
1 -12.4765 -16.3927 -55.9811
1 -19.5676 -13.536 -55.5475
2 -20.8392 -14.4555 -54.5507
1 -16.4099 -14.9462 -54.5845
2 -18.3411 -14.5152 -54.159
2 -14.7864 -13.9975 -54.3074
1 -13.5365 -13.3306 -55.4838
1 -10.5252 -13.6945 -56.072
2 -10.6057 -15.539 -55.5456
2 -21.5998 -10.7964 -54.6451
1 -20.2372 -10.2185 -55.8742
2 -19.0395 -11.7076 -55.3484
1 -17.1255 -11.6446 -55.3198
2 -16.8739 -9.79821 -55.4739
1 -13.6296 -10.1779 -55.6384
2 -13.7208 -11.1739 -53.9964
2 -11.7151 -12.8881 -54.8719
1 -19.9257 -8.44558 -55.1189
1 -20.7593 -6.99515 -56.0884
1 -16.085 -8.3289 -54.5512
2 -14.5199 -8.48945 -55.8007
1 -10.6365 -9.20159 -55.0264
2 -11.8436 -8.46572 -53.9253
2 -21.7967 -21.4692 -51.8051
1 -21.8272 -20.9076 -53.5784
1 -20.3562 -20.6524 -50.8963
2 -20.6479 -19.1982 -52.1633
2 -17.7653 -19.2424 -53.1922
2 -16.0474 -21.7972 -52.8067
2 -18.9876 -21.8715 -50.7601
1 -15.0878 -20.2592 -53.1067
2 -13.0754 -20.3644 -52.9322
1 -12.611 -20.5917 -51.1294
2 -21.5202 -16.6281 -52.9036
1 -21.1765 -17.6262 -51.2699
1 -19.4438 -18.925 -53.5943
2 -15.9694 -16.6404 -53.8508
2 -18.7098 -16.7249 -52.5403
1 -16.8826 -17.8273 -52.4442
1 -16.9984 -17.1059 -50.7707
1 -18.5953 -16.0629 -50.7502
2 -15.1633 -18.6711 -51.9916
2 -13.6528 -16.3484 -51.3232
1 -12.3981 -16.6207 -52.702
2 -11.3468 -17.8234 -51.7277
1 -19.9103 -15.8604 -53.7576
2 -19.3768 -14.3183 -51.3689
1 -18.3079 -13.2848 -52.5704
2 -16.4603 -13.7596 -51.6543
2 -13.428 -13.4886 -52.0257
2 -11.2166 -15.255 -52.9081
1 -11.7506 -13.4603 -52.9904
2 -22.187 -12.72 -51.8744
1 -21.444 -11.1748 -52.8703
2 -19.6743 -11.8264 -52.2627
1 -19.5046 -10.1291 -50.9371
2 -21.3612 -9.80909 -51.5201
2 -16.7799 -12.2289 -53.5792
1 -15.1129 -12.7411 -52.8241
2 -14.9082 -11.3332 -51.4922
1 -13.8389 -10.1018 -52.4618
2 -10.7518 -12.4004 -51.8987
2 -20.5402 -7.2811 -52.3769
1 -19.1442 -8.06432 -53.4553
1 -21.7036 -8.10636 -50.901
2 -16.7155 -6.83281 -50.9451
2 -17.47 -7.39661 -53.6231
2 -18.315 -9.34914 -52.2203
1 -16.7172 -8.53269 -51.705
2 -15.2391 -8.80057 -52.9517
2 -12.6681 -9.02866 -51.4317
1 -12.008 -7.46469 -52.3576
2 -20.937 -19.7948 -49.3908
1 -17.3896 -21.2926 -49.668
2 -18.2796 -19.4143 -49.6382
2 -16.0387 -20.0783 -48.8007
2 -18.4205 -22.1084 -48.1742
2 -13.8475 -21.8848 -50.682
2 -12.8769 -19.1454 -49.9978
2 -11.1158 -21.6196 -50.6614
2 -12.6935 -21.541 -48.3297
2 -21.175 -17.787 -47.8525
2 -20.0616 -16.9214 -50.0478
1 -19.6359 -18.6335 -48.5048
2 -18.1409 -17.6024 -47.7126
1 -16.9307 -18.301 -49.0948
1 -14.3044 -17.9619 -50.5247
2 -15.1825 -17.5021 -48.9497
1 -14.0457 -16.1747 -48.0738
2 -12.3638 -16.7783 -48.72
1 -11.2476 -17.9536 -49.778
1 -20.5177 -12.9634 -50.7044
2 -21.4433 -13.7035 -49.1905
2 -17.9279 -14.9957 -49.1932
1 -16.434 -13.9691 -49.7128
1 -13.4506 -14.5743 -50.5219
2 -14.7312 -14.7003 -49.2125
2 -10.6725 -13.3003 -48.0387
1 -11.2153 -15.2418 -48.4738
2 -11.7489 -14.1841 -50.0438
2 -19.4307 -11.6414 -49.7682
2 -18.0752 -9.81617 -47.6691
1 -18.3114 -11.6757 -48.1512
2 -16.5165 -12.1583 -48.7618
1 -15.432 -10.8074 -49.6642
2 -13.7035 -10.5232 -49.0767
1 -12.0489 -10.8738 -47.7272
2 -11.0163 -11.0156 -49.4045
1 -19.1584 -8.03435 -48.2662
2 -19.8086 -8.585 -49.8378
1 -22.1186 -7.43833 -48.0081
2 -16.3442 -9.17934 -49.9473
1 -17.5905 -6.96998 -48.2632
1 -15.832 -7.27037 -49.1426
2 -13.9304 -7.34622 -49.5787
1 -12.8509 -8.78084 -49.5784
2 -11.043 -8.13202 -49.657
2 -19.7586 -19.8166 -46.6622
1 -18.6924 -21.325 -46.5316
1 -15.7085 -20.3976 -47.0511
2 -14.0322 -19.3636 -46.6006
2 -15.0436 -22.1838 -47.0858
1 -12.4502 -20.5187 -46.7387
2 -11.2509 -19.1315 -46.4543
1 -21.6142 -16.5904 -46.4198
2 -15.0675 -16.5127 -46.3953
2 -20.3212 -15.2601 -46.6498
1 -21.1142 -13.565 -47.2945
2 -17.5684 -14.6276 -46.117
1 -18.4542 -15.6857 -47.4026
1 -13.0455 -13.3924 -46.1222
2 -12.781 -14.9634 -47.1511
2 -19.3884 -12.685 -47.013
2 -13.2075 -11.7532 -46.7491
2 -20.4116 -7.23378 -47.174
1 -16.6136 -9.29275 -46.5906
1 -13.607 -7.91546 -46.6481
2 -15.3247 -8.12932 -47.4276
2 -12.3037 -8.95548 -47.56
2 -20.392 -5.64911 -54.7423
1 -18.7164 -4.79135 -54.6357
2 -17.3515 -5.41888 -55.7824
1 -15.4565 -5.10624 -55.4997
2 -13.8394 -5.70492 -54.8398
1 -12.2076 -4.93848 -55.4867
2 -10.6267 -5.45466 -54.4758
2 -21.2864 -2.8071 -54.7717
1 -19.9617 -2.31065 -55.9924
2 -18.4475 -2.9845 -54.8345
1 -16.9183 -2.0907 -55.5488
2 -15.4196 -3.14547 -55.5704
1 -13.6968 -2.31966 -55.4933
2 -13.1152 -1.0098 -54.3968
2 -12.7812 -3.48258 -53.9156
2 -19.5927 -0.39948 -56.156
1 -20.6591 0.583676 -54.9059
2 -16.5432 -0.424281 -54.6644
1 -12.9047 0.789367 -54.5728
2 -21.3876 -4.22587 -52.0325
1 -21.286 -5.75149 -53.122
1 -16.9886 -5.48189 -52.2014
2 -18.7791 -5.02239 -52.7355
2 -17.3411 -4.02447 -50.9134
1 -19.0835 -3.65213 -51.3576
2 -13.3746 -6.21953 -51.8979
2 -15.7312 -4.79726 -53.2727
1 -13.9048 -4.5875 -52.7424
2 -13.4016 -3.77597 -51.0452
2 -10.6573 -6.32899 -51.6528
2 -19.7517 -2.02395 -51.9525
1 -21.6127 -2.40617 -52.7747
2 -12.6947 -1.32132 -51.5635
2 -10.5658 -3.22581 -52.0955
1 -11.8043 -2.0939 -53.0516
2 -10.542 -0.622161 -53.2843
2 -21.2792 -0.318761 -53.3089
1 -19.3908 -0.0641542 -52.0506
2 -20.5665 0.978865 -50.8772
2 -19.0566 0.912059 -53.7404
2 -17.6393 -0.324343 -51.3532
1 -16.5065 0.386297 -52.864
2 -15.1925 0.316067 -51.4954
1 -13.3285 0.533954 -51.3476
2 -21.6852 -6.55761 -49.727
1 -21.8121 -4.81874 -50.2185
2 -20.0597 -4.02104 -49.8575
1 -16.4997 -3.79886 -49.2676
1 -13.5766 -5.50195 -50.1128
2 -15.2925 -5.24099 -49.3022
1 -10.514 -6.10122 -49.6717
2 -12.0825 -5.40832 -48.9363
2 -20.9801 -1.56976 -48.4649
1 -19.8107 -2.98811 -48.1972
2 -18.1036 -2.35608 -48.9127
1 -16.0741 -0.577135 -50.1313
2 -15.4269 -2.30657 -49.6383
1 -13.5163 -2.22377 -49.9506
1 -10.7092 -1.37476 -48.3248
2 -12.1676 -2.52655 -48.538
2 -16.7173 0.109818 -48.5464
2 -13.8037 -0.36369 -49.4369
1 -12.9871 0.518378 -48.0436
2 -11.6016 1.15168 -50.6669
2 -11.2245 0.21904 -47.6424
2 -20.8777 -4.39153 -47.3055
1 -17.0748 -6.1261 -46.6982
2 -17.0121 -4.30611 -47.4814
2 -12.7557 -6.2466 -46.3218
2 -13.7905 -3.6928 -46.3865
1 -15.7704 -3.6101 -46.112
2 -10.6645 -4.59114 -46.4277
1 -12.2932 -4.31007 -47.452
1 -20.6678 -0.533443 -46.9111
2 -19.2528 -2.18864 -46.5098
2 -16.1992 -1.70468 -46.4077
1 -17.6533 -1.14589 -47.434
2 -22.0849 0.525826 -47.3054
2 -19.013 0.349841 -47.1769
2 -14.1142 0.705312 -46.5054
1 -15.778 1.32237 -47.3395
1 -21.3761 -19.5661 -45.7609
2 -17.0234 -20.6662 -45.7235
2 -12.1145 -21.6506 -45.305
2 -21.4721 -17.8425 -45.0667
1 -14.3525 -17.9168 -45.4301
1 -15.8226 -18.7174 -44.5352
2 -12.6737 -17.2112 -45.0009
1 -18.8523 -13.3642 -45.26
1 -15.9283 -15.1214 -45.3641
2 -14.6744 -13.7766 -45.1001
1 -11.7164 -15.7588 -45.4344
2 -11.7869 -13.9309 -44.7763
1 -18.2466 -11.7112 -44.5551
2 -15.8133 -10.5446 -45.5851
1 -21.37 -8.26825 -44.856
2 -19.7207 -9.11206 -44.553
2 -17.3253 -7.98312 -45.6039
2 -13.9423 -8.17706 -44.7591
2 -21.422 -20.7886 -44.3388
1 -20.5916 -20.3427 -42.6463
2 -19.7921 -21.8857 -42.1463
2 -22.1134 -20.419 -41.4281
1 -16.4216 -20.7105 -43.888
2 -16.6637 -19.706 -42.1604
2 -14.7988 -21.652 -44.1985
1 -13.0711 -21.2846 -43.6508
2 -12.7455 -19.4964 -43.3957
1 -21.747 -17.489 -43.1479
2 -20.3371 -18.5358 -42.4615
2 -19.7145 -16.0381 -41.371
2 -17.8996 -17.3813 -42.5167
1 -16.1342 -17.918 -42.8733
2 -14.6199 -17.3787 -42.0947
1 -12.9712 -18.2984 -41.7
1 -11.2449 -18.4246 -44.2533
2 -11.4398 -17.4956 -42.448
2 -21.8353 -15.6362 -43.3732
1 -20.7595 -14.1799 -42.9583
2 -18.9824 -14.5802 -43.6927
2 -15.9774 -15.6507 -43.5818
1 -18.0011 -15.5355 -42.497
1 -15.0572 -15.3837 -41.7981
2 -13.7462 -14.0533 -42.1399
2 -20.7306 -12.8246 -44.4355
2 -21.8584 -10.3834 -44.373
1 -19.9264 -11.0293 -43.8635
2 -19.8914 -10.971 -42.0297
1 -16.6706 -10.9214 -44.0177
1 -14.2056 -12.8515 -43.5152
2 -15.6054 -11.785 -42.7615
2 -12.7701 -11.5879 -43.9102
1 -14.9364 -10.7744 -41.3243
1 -11.1947 -12.5724 -43.345
1 -22.1125 -7.36825 -41.532
2 -17.3786 -9.5127 -42.9905
1 -18.2078 -8.13368 -44.0457
2 -18.678 -6.71224 -43.0355
1 -13.0337 -9.60465 -43.785
2 -13.7884 -9.44447 -42.0691
2 -11.2673 -9.09746 -43.8873
2 -11.5636 -7.57419 -41.7385
2 -19.7159 -19.3329 -39.8986
1 -21.2868 -20.3211 -39.7956
2 -21.2041 -22.1343 -39.3676
2 -16.6057 -20.208 -39.1421
1 -17.3513 -21.8271 -38.4176
1 -15.6339 -20.2083 -40.7255
2 -13.7996 -19.8727 -40.6185
2 -15.5934 -22.1137 -40.9608
1 -12.703 -20.6626 -39.3152
2 -11.1047 -21.2096 -40.1904
2 -12.1256 -19.3412 -38.1803
2 -20.6977 -16.8925 -39.0737
1 -19.1072 -17.822 -40.9188
2 -17.5765 -17.3444 -39.6324
1 -17.1131 -18.5963 -38.3702
2 -12.4447 -17.2284 -40.0107
1 -10.9496 -18.0596 -39.1001
2 -20.9451 -13.6882 -41.1633
1 -20.3911 -15.0811 -39.9363
2 -21.7298 -14.254 -38.5337
2 -16.9972 -14.663 -41.2774
2 -18.7664 -14.4368 -39.1534
1 -16.9228 -15.2851 -39.4178
2 -16.5659 -13.3362 -39.0641
1 -13.3744 -15.8963 -39.2068
2 -15.0733 -15.4087 -39.9113
1 -12.8336 -13.0602 -40.7094
2 -12.2619 -14.4425 -39.5867
1 -10.6287 -14.7333 -38.5608
1 -20.5946 -11.9117 -40.583
2 -21.9994 -11.4664 -39.4851
1 -18.3733 -10.0565 -41.1753
2 -19.0195 -11.4174 -39.6659
1 -18.3484 -12.7906 -38.5002
2 -16.6724 -10.2363 -40.5271
2 -14.1967 -11.9801 -40.0934
1 -15.2372 -12.2853 -38.4696
2 -11.6932 -11.801 -41.2704
1 -10.9982 -10.2687 -40.3
2 -22.1807 -8.58267 -40.0232
2 -20.3562 -7.05201 -38.3005
1 -22.1763 -7.56442 -38.4267
2 -19.2868 -8.58446 -40.7071
1 -18.8955 -6.80073 -41.1513
2 -17.0113 -6.93535 -40.5171
1 -16.465 -8.54265 -39.6376
1 -13.1758 -8.07563 -40.8862
2 -14.6059 -8.46206 -39.673
2 -12.061 -8.86836 -39.4322
1 -10.9886 -7.57599 -38.3108
1 -19.6682 -20.0904 -36.4803
2 -21.2976 -21.3227 -36.5743
2 -18.9853 -21.7215 -37.496
2 -16.5762 -21.4542 -36.5238
1 -15.5671 -20.0086 -35.9222
2 -13.6949 -20.4755 -35.7628
2 -20.9781 -18.6913 -36.3452
1 -19.9282 -17.5336 -37.431
2 -18.5481 -18.8027 -37.1532
2 -15.7043 -18.4713 -37.1193
1 -15.37 -16.6854 -36.5912
1 -12.6195 -18.9778 -36.3774
2 -10.4799 -16.6435 -38.0045
2 -10.9622 -18.5931 -35.6421
2 -19.7372 -15.9281 -36.444
1 -20.9768 -14.4127 -36.8127
2 -16.823 -15.8086 -37.4408
1 -17.9658 -15.3555 -36.0123
2 -13.8918 -15.748 -37.4561
1 -13.2286 -14.3495 -36.5184
2 -11.4513 -14.2077 -36.913
2 -19.9593 -12.6005 -37.1565
1 -21.0397 -11.0464 -37.7981
2 -17.5178 -11.6389 -37.0538
1 -18.5994 -12.0967 -35.5925
1 -16.7184 -9.96309 -36.7778
2 -14.3627 -12.7162 -36.836
2 -15.3718 -10.5273 -38.1135
1 -13.6477 -11.1072 -35.831
2 -12.7357 -10.4994 -37.3556
2 -11.5135 -11.7064 -35.6285
1 -10.7604 -10.5555 -36.9158
2 -20.4107 -9.304 -37.6582
1 -19.0953 -8.16676 -37.1877
2 -17.3948 -8.60926 -38.0545
2 -18.2116 -9.1562 -35.7364
1 -13.7744 -9.21652 -38.1437
2 -13.9205 -7.65081 -36.9445
2 -10.7654 -8.4859 -36.6663
1 -20.1811 -5.25522 -45.8058
2 -21.3675 -6.27738 -44.8267
2 -18.4652 -5.74052 -45.4118
2 -15.5358 -5.68123 -45.7593
1 -13.2562 -3.57623 -44.4698
1 -11.005 -6.42101 -45.6305
2 -21.0657 -1.0151 -45.0417
1 -19.6307 -2.26132 -44.6558
1 -14.4414 -0.268703 -44.8499
2 -20.2321 -3.96292 -44.2423
1 -20.7052 -4.46609 -42.4103
2 -20.7416 -6.1615 -41.5789
2 -18.699 -4.35602 -42.1898
1 -17.6977 -5.23391 -43.6407
2 -16.0009 -6.03892 -43.0552
1 -14.6391 -6.53547 -44.3564
2 -13.2321 -5.33166 -43.7094
1 -11.9452 -5.78794 -42.3298
2 -21.3659 -3.02368 -41.4836
2 -16.8659 -3.49877 -44.3886
2 -18.4947 -1.46974 -43.4489
1 -16.4615 -1.87125 -43.6343
2 -16.0457 -1.4947 -41.7157
2 -14.498 -2.02288 -44.1483
2 -12.9899 -0.905928 -41.3941
2 -11.756 -2.94793 -43.6897
1 -12.1199 -2.38588 -41.9339
2 -20.4803 -0.138179 -41.5074
1 -21.8123 1.13228 -41.3353
2 -16.2126 0.00462465 -44.1184
1 -19.0182 0.0725372 -42.6185
2 -17.7868 0.994764 -41.5414
2 -13.0394 0.852698 -44.0447
1 -12.768 0.742401 -42.1731
2 -10.676 0.667123 -41.9267
2 -18.9421 -5.32502 -39.8225
1 -18.0494 -3.86913 -40.3938
2 -16.1524 -4.12709 -40.6844
1 -15.6727 -5.82388 -41.2999
1 -15.8701 -3.81523 -38.2399
2 -13.7134 -6.30305 -41.0601
2 -14.6682 -5.20745 -38.7521
1 -12.9302 -4.85474 -39.6821
2 -13.4151 -3.57782 -41.1153
2 -11.2189 -4.93685 -40.7718
2 -11.9236 -6.00994 -38.3959
2 -21.3257 -1.8224 -38.9465
1 -20.4782 -1.76883 -40.517
2 -17.6946 -3.41145 -38.4693
2 -18.7163 -2.09194 -40.3078
1 -17.8509 -1.43409 -38.6365
1 -14.8879 -2.57282 -40.7438
2 -14.855 -2.31026 -38.8244
2 -12.2848 -3.43592 -38.47
1 -16.1589 0.19639 -41.1646
2 -16.7087 -0.123925 -39.3587
1 -16.1135 1.36182 -38.183
2 -14.6723 1.23262 -41.1903
2 -12.0708 -0.235296 -38.5759
1 -19.489 -5.37406 -37.9709
2 -20.7438 -4.17507 -37.1605
2 -16.0437 -4.67818 -36.5949
2 -18.5679 -6.38454 -36.695
1 -14.6498 -5.98207 -36.9334
2 -13.1383 -5.3481 -35.9552
1 -11.63 -4.54912 -37.0376
1 -20.7113 -1.10896 -37.3263
2 -20.0425 -1.78291 -35.6371
2 -16.9388 -1.54599 -36.8218
1 -13.0616 -1.80044 -38.1433
2 -13.452 -1.54422 -36.2706
1 -15.2252 -0.882684 -36.0618
2 -11.2953 -3.23516 -35.6495
2 -19.2169 -0.166617 -37.963
2 -14.7402 0.586788 -37.2684
1 -12.8847 1.15648 -37.6148
2 -12.1948 1.323 -35.8955
2 -10.8923 -21.2841 -35.4728
2 -16.5016 -16.312 -35.0493
2 -13.7211 -17.6118 -35.5105
1 -10.4788 -13.2218 -35.5611
2 -15.1457 -9.89119 -35.5365
1 -14.3209 -8.21475 -35.1227
2 -15.8357 -7.00808 -35.287
2 -22.1592 -21.16 -33.651
1 -20.3349 -20.442 -33.2958
2 -19.1785 -20.9366 -34.7383
2 -16.1728 -21.9994 -33.69
2 -16.0875 -19.2758 -34.3796
2 -17.3712 -19.7042 -31.8767
1 -15.8767 -20.3477 -32.8794
2 -14.1994 -19.5728 -32.1766
1 -12.7613 -20.7961 -32.0352
1 -12.6947 -21.9744 -35.0087
2 -11.4702 -19.4782 -32.5845
2 -20.2693 -18.6544 -33.299
1 -21.4912 -17.2911 -33.0491
2 -17.2553 -16.4406 -31.8808
2 -14.4304 -16.6275 -32.8959
1 -12.9439 -16.5185 -34.219
2 -11.372 -16.5949 -33.2975
2 -21.4883 -14.0976 -34.9874
2 -20.1629 -15.7757 -33.0443
1 -20.0184 -13.8719 -33.5354
2 -21.625 -13.251 -32.6661
2 -18.3863 -13.8647 -34.9744
1 -16.0618 -15.8554 -33.3146
2 -18.6193 -13.3837 -32.2733
2 -15.7521 -14.0264 -33.1341
2 -13.5414 -14.736 -34.7575
1 -13.9481 -13.4459 -33.4078
2 -12.8757 -13.7527 -31.8827
2 -10.5688 -13.9251 -33.808
1 -11.0748 -12.9622 -32.209
2 -22.1719 -10.1192 -33.5338
1 -21.9694 -11.6966 -34.5795
2 -20.1101 -11.9359 -34.4048
1 -17.0113 -12.6315 -33.1628
2 -17.398 -11.2851 -34.4472
2 -15.9233 -11.6659 -31.8903
2 -13.8862 -11.6897 -34.0157
1 -12.7747 -10.4307 -33.0345
2 -11.2208 -11.1924 -32.2941
1 -20.6662 -9.70274 -32.358
2 -20.8162 -7.79718 -32.6761
1 -15.9822 -6.70199 -33.1751
2 -18.8675 -9.67258 -32.5112
1 -17.857 -9.46508 -33.9918
2 -16.3865 -8.706 -33.0304
2 -13.7764 -7.11433 -33.6434
2 -12.7271 -9.31515 -34.7329
1 -11.2197 -8.12805 -34.9226
2 -11.3067 -7.94445 -31.9855
2 -19.4697 -21.5383 -29.112
2 -19.9972 -21.474 -31.668
1 -21.1398 -21.5313 -30.0452
2 -21.658 -19.6581 -29.8219
2 -17.7531 -19.5707 -29.3041
1 -18.1909 -21.0228 -30.5009
1 -14.5854 -21.9242 -29.7309
2 -12.7478 -21.4553 -30.2793
2 -15.1739 -21.7764 -31.4796
2 -22.2573 -17.6075 -31.2777
1 -20.8273 -18.0783 -29.8869
2 -19.1684 -17.6742 -30.6519
1 -19.087 -16.0815 -31.5999
1 -17.2978 -18.1658 -30.8937
1 -15.1407 -16.58 -28.8878
2 -15.5477 -17.8646 -30.1898
1 -14.2351 -17.8418 -31.5377
2 -12.7316 -17.4502 -30.6749
1 -11.9971 -16.7483 -28.9427
1 -11.0375 -17.8218 -31.5857
2 -10.5554 -17.6806 -29.5939
1 -22.1171 -12.9281 -30.9024
2 -22.1797 -14.8516 -30.1973
2 -19.3103 -14.8446 -30.2324
1 -21.0218 -14.9596 -28.7614
2 -17.3175 -13.0922 -29.4724
1 -18.954 -12.9182 -30.4788
2 -15.0041 -14.8884 -29.6607
1 -13.5066 -13.9853 -30.1297
2 -11.9381 -14.9164 -29.5919
2 -20.7393 -12.6201 -29.6656
2 -21.4222 -9.81858 -30.5935
1 -20.7822 -10.7862 -29.1484
2 -19.0171 -10.9161 -30.1049
2 -16.0672 -10.002 -29.7852
1 -15.8537 -12.1402 -30.0359
2 -14.0501 -12.2773 -29.6471
2 -11.1228 -12.4269 -29.2563
1 -22.0787 -7.28077 -31.4105
2 -21.1418 -7.0943 -29.8218
2 -17.9564 -7.80935 -29.9689
1 -17.9686 -9.60823 -29.3134
1 -15.5762 -9.67689 -31.6424
1 -13.3302 -7.53563 -31.6303
2 -13.719 -9.40895 -31.721
2 -15.3148 -6.91377 -31.3471
2 -12.6351 -7.30552 -29.7313
1 -10.8354 -7.88935 -29.5417
2 -21.6514 -19.1848 -26.5308
2 -22.2165 -21.7788 -28.3558
2 -18.0168 -20.8904 -26.8092
1 -16.7438 -20.0518 -27.8912
2 -13.1124 -20.0847 -27.0782
2 -15.3344 -21.1558 -28.3661
1 -11.3002 -20.2364 -26.9067
1 -20.5824 -17.4632 -26.7004
2 -21.0178 -16.9482 -28.4837
2 -21.853 -16.3834 -25.8476
2 -18.8278 -17.4949 -26.0167
1 -17.0874 -17.2016 -26.3534
2 -16.8596 -16.3009 -28.0647
2 -15.9589 -18.6428 -26.6286
1 -13.9835 -18.5931 -26.6326
2 -13.7039 -17.2862 -27.9362
2 -10.5662 -18.404 -27.0526
1 -11.7477 -16.2996 -25.7092
1 -19.1565 -13.5262 -26.0348
2 -19.6117 -14.6626 -27.6061
2 -17.3524 -13.6897 -26.8886
1 -17.6773 -14.7287 -28.5122
2 -12.702 -13.2319 -27.2882
2 -11.2485 -15.7571 -27.388
1 -10.8884 -13.9908 -28.1813
2 -19.7865 -11.7585 -26.5507
1 -21.7346 -12.5788 -26.5786
2 -22.1572 -11.1282 -27.8457
1 -18.6876 -10.2584 -26.1491
2 -17.3518 -9.88507 -27.5105
2 -14.394 -10.7258 -27.1603
1 -12.9249 -11.6575 -28.2259
2 -11.7611 -10.1975 -27.9263
1 -20.3099 -8.0419 -27.2841
2 -21.9896 -7.22057 -26.9589
2 -19.7924 -9.45558 -28.2346
2 -19.5593 -8.61623 -25.6317
1 -15.5441 -9.36405 -27.6802
2 -15.3497 -7.53734 -28.1614
2 -15.4065 -8.56724 -25.7552
1 -15.0768 -6.76614 -26.455
2 -10.6651 -7.57026 -27.692
1 -10.7272 -9.11824 -26.6539
2 -12.3641 -8.85181 -25.7336
2 -10.5832 -21.0426 -25.4439
1 -16.5394 -14.3772 -25.3588
1 -13.3117 -13.3391 -25.5308
1 -13.7709 -10.0473 -25.4211
1 -20.1963 -3.69412 -35.0249
1 -17.3097 -5.67394 -35.4144
2 -18.3244 -4.00164 -35.0326
1 -17.3866 -2.40471 -35.1244
2 -19.5066 0.977683 -35.3019
2 -20.8562 -5.5413 -34.5738
1 -19.6925 -6.34069 -33.265
2 -17.9981 -6.68365 -33.8321
2 -15.8837 -4.80446 -33.434
1 -12.8528 -5.38358 -34.1201
2 -11.0507 -6.31186 -34.3235
1 -10.5896 -6.12755 -32.1862
2 -12.5494 -5.53008 -32.1333
2 -22.0008 -0.726121 -33.7998
2 -20.5611 -2.86017 -33.3541
1 -19.9674 -0.627239 -34.1474
2 -18.0462 -1.12069 -33.8564
1 -17.4876 -1.45106 -32.0193
2 -13.1479 -3.45399 -33.6686
2 -15.6326 -1.50466 -32.2157
2 -15.5328 -2.19929 -34.6656
1 -14.9942 -3.22389 -32.9436
1 -12.5083 -2.00371 -34.6602
2 -10.7128 -0.995854 -34.3121
2 -20.0576 0.807864 -32.8413
2 -13.3318 -0.436027 -33.4276
2 -15.5886 0.541149 -34.7987
1 -15.118 -0.105591 -33.1814
2 -10.5205 0.550686 -32.0405
1 -12.2528 -0.348206 -31.8948
1 -19.3334 -6.4184 -29.825
2 -19.903 -5.50596 -31.5452
1 -19.9728 -3.651 -31.5719
2 -22.2319 -4.68146 -28.7959
1 -16.301 -6.67887 -29.7457
2 -17.7608 -5.3443 -29.731
1 -17.9762 -3.5786 -29.3299
1 -13.3912 -5.89846 -28.7748
2 -15.0838 -5.20862 -29.24
2 -10.5365 -4.20602 -31.829
2 -12.3632 -4.42754 -29.3793
1 -12.3147 -3.90124 -31.3158
2 -19.7004 -3.16175 -29.6553
2 -21.6942 -3.15605 -31.1381
1 -20.4502 -1.52041 -29.1853
2 -21.11 -0.495019 -30.6501
2 -18.2325 -3.0549 -31.6843
2 -16.5991 -2.19849 -29.6473
2 -14.044 -3.20573 -31.1876
1 -15.0326 -3.30912 -29.5584
2 -11.4847 -1.97832 -31.1242
1 -19.7488 0.847943 -31.0154
1 -17.174 -0.402542 -29.0471
2 -17.9789 0.0872956 -30.9427
2 -15.9759 1.19293 -29.0462
2 -13.2431 0.506394 -30.4543
2 -10.7271 0.857306 -29.0841
2 -20.7968 -4.31709 -26.1235
2 -19.4199 -6.38882 -27.924
1 -18.4108 -5.32419 -26.8067
2 -16.7591 -5.8847 -26.3814
2 -18.1716 -3.58408 -27.4463
2 -13.2201 -6.08873 -26.9511
1 -11.3346 -6.08159 -26.622
2 -11.9806 -3.7108 -26.2499
1 -22.0261 -3.56003 -27.2377
2 -21.7687 -1.9107 -28.0026
2 -19.0881 -0.987698 -25.8555
1 -17.7838 -2.21795 -26.2734
2 -16.5492 -0.933351 -27.1177
1 -14.8482 -1.41622 -26.8885
2 -14.0771 -2.70659 -28.038
2 -11.4499 -1.31149 -28.1301
1 -12.0693 -2.99675 -27.9608
2 -20.9899 0.742311 -26.3367
1 -19.2444 0.595637 -26.8878
2 -19.0066 -0.420751 -28.5025
2 -13.9643 0.13637 -27.221
2 -10.913 0.631867 -25.9705
1 -12.457 0.0762935 -28.705
2 -14.4592 -2.28849 -25.3021
1 -21.5465 -19.7609 -24.6995
2 -20.179 -21.0995 -24.2097
1 -18.0654 -21.05 -24.9735
2 -17.8942 -19.5535 -23.9837
2 -16.1798 -21.2283 -24.3103
1 -15.961 -19.7266 -23.0937
2 -14.0507 -19.9108 -23.6666
1 -12.6666 -21.0458 -23.0418
2 -10.8523 -21.6231 -22.8389
2 -11.6143 -19.2904 -22.9195
2 -20.8859 -18.0064 -24.2056
1 -21.6407 -16.3309 -23.8736
1 -19.147 -18.2479 -23.5613
1 -16.3385 -16.4398 -22.9623
2 -18.1749 -16.8547 -22.7047
2 -16.3649 -16.198 -24.8695
1 -13.277 -18.1399 -23.3929
2 -13.0478 -17.6356 -25.2566
2 -15.2296 -17.9979 -22.697
2 -12.5198 -16.6556 -22.5088
2 -21.1592 -14.9866 -22.6708
2 -20.8565 -13.7462 -25.1554
1 -21.176 -13.2256 -23.3786
2 -18.018 -13.625 -24.3883
2 -15.0848 -13.3629 -24.8567
1 -14.9202 -13.2428 -22.8549
2 -13.0097 -13.1918 -22.5773
2 -12.4792 -14.8685 -24.7873
1 -12.0271 -14.7931 -22.8167
2 -19.7508 -12.0667 -22.8528
2 -17.6175 -10.5724 -24.5766
1 -17.8604 -12.0496 -23.4327
2 -13.0026 -11.6522 -24.7707
1 -11.9448 -11.5161 -22.9375
2 -21.9869 -9.5182 -23.387
1 -19.28 -7.37959 -24.119
2 -21.1672 -6.75655 -24.0455
2 -17.2327 -7.53482 -23.5396
1 -16.316 -9.13935 -23.965
2 -14.5837 -9.6691 -23.5612
2 -12.8458 -7.27805 -22.8538
2 -11.7707 -9.61911 -22.9666
1 -11.5629 -8.0713 -24.1865
1 -19.831 -20.9877 -22.3826
2 -21.5327 -21.2265 -21.5459
2 -19.7931 -19.1972 -21.9984
1 -21.5218 -21.4672 -19.5193
2 -16.5356 -20.2149 -21.407
1 -17.2124 -21.6759 -20.4244
2 -13.4397 -21.8775 -21.4727
1 -12.6701 -20.8058 -20.1379
2 -10.8277 -21.4038 -19.9565
1 -21.0874 -18.6456 -20.7316
2 -20.5401 -16.9643 -20.7073
1 -16.3392 -18.5743 -20.1668
1 -18.5614 -16.7017 -20.7997
2 -16.5064 -16.7192 -20.6185
2 -18.2057 -18.3984 -19.7948
2 -13.7244 -16.2405 -19.871
2 -12.6286 -18.9546 -20.2796
1 -11.3687 -17.8194 -21.341
2 -11.1774 -16.7466 -19.7435
1 -21.0116 -15.113 -20.4905
2 -21.0636 -13.0609 -20.4686
2 -18.9986 -14.9175 -20.5389
1 -18.2087 -13.7668 -19.3871
2 -15.4136 -14.9206 -22.2384
1 -15.2519 -15.1864 -20.1231
2 -13.9319 -13.7256 -19.9583
1 -12.1756 -15.068 -19.6112
2 -11.2434 -14.4655 -21.028
1 -19.9145 -11.676 -20.9918
2 -20.4775 -9.93803 -20.4425
2 -16.313 -12.1152 -22.3895
2 -18.1797 -12.043 -20.2652
1 -16.6368 -11.1651 -20.7698
2 -13.2449 -10.9604 -21.5638
1 -13.844 -11.9115 -20.0561
2 -15.5823 -11.3157 -19.3393
2 -10.5337 -11.9103 -21.4408
2 -19.5844 -7.95616 -22.3739
1 -21.1531 -8.84781 -21.9119
2 -22.2358 -7.4058 -21.2092
2 -16.8556 -9.53635 -21.7569
1 -17.7196 -7.99535 -21.5507
1 -13.3844 -9.06729 -22.0449
2 -13.2281 -8.34842 -20.301
2 -10.6411 -9.19891 -19.781
2 -20.6725 -19.7359 -19.203
1 -22.0025 -20.9577 -16.2535
2 -21.4632 -22.1129 -17.685
2 -18.1606 -21.3214 -18.9499
1 -18.8663 -19.6881 -18.6665
2 -18.1667 -19.2301 -16.9514
2 -15.7462 -21.3114 -17.1335
2 -13.4388 -21.2258 -18.5335
1 -14.3128 -19.9753 -17.1649
2 -10.8175 -20.1195 -17.1559
2 -20.4469 -17.1425 -16.2997
2 -18.3601 -16.0185 -17.6915
2 -15.167 -18.9929 -18.8463
1 -13.6111 -17.8836 -19.0518
2 -13.1971 -18.4022 -17.3122
2 -15.1174 -16.1909 -17.5981
2 -10.9681 -16.893 -16.9489
1 -11.3344 -18.529 -16.21
2 -21.3514 -15.4154 -18.4053
1 -19.9175 -15.227 -17.1946
2 -19.3976 -13.394 -17.9405
2 -16.4077 -14.3231 -18.9356
1 -16.7052 -15.2768 -17.1911
2 -16.7658 -13.4187 -16.4385
2 -12.1646 -14.3688 -17.7654
1 -12.0689 -15.5096 -16.2235
2 -20.7608 -10.7524 -17.624
1 -19.2427 -11.7427 -17.1197
2 -17.6591 -11.0332 -17.5962
1 -15.8195 -11.7429 -17.5176
2 -14.2579 -12.3789 -16.5234
2 -15.6478 -9.90238 -16.9297
2 -12.7778 -11.2154 -18.7549
1 -12.5449 -12.5641 -17.3834
2 -11.2611 -11.857 -16.1922
1 -22.0817 -6.86181 -16.6175
1 -20.2724 -9.2702 -18.622
2 -21.7199 -8.02199 -18.3913
2 -16.7954 -7.13132 -16.9255
2 -18.6271 -8.44146 -18.4237
1 -17.3182 -9.16198 -17.2249
2 -13.9175 -7.87291 -16.8324
1 -12.3571 -9.47669 -19.0399
1 -11.9261 -7.22946 -16.5544