9160
 Atoms. Timestep: 10000
1 -20.8393 24.2313 -65.0353
2 24.267 24.0222 -16.3954
2 -19.3655 24.9887 -65.8565
1 -19.3406 -20.7596 -66.4391
1 -16.5124 -18.9257 -15.5048
2 -18.4411 -20.0178 -64.7563
2 -15.4961 -19.7026 -65.5946
2 -11.7811 -18.7932 -64.3393
1 -12.0417 23.4512 -15.9766
2 -20.4548 -19.209 -66.2631
2 -19.4876 -16.3867 -65.2346
1 -22.2916 -19.0137 -15.1122
1 -19.3909 -18.1879 -64.8939
2 -17.3097 -17.6568 -65.8631
1 -17.9695 -15.7807 -66.1243
1 -13.4947 -19.45 -65.1981
2 -13.9998 -17.6584 -64.9265
1 -12.3618 -16.9232 -64.3958
1 -19.7905 -14.8922 -64.0366
2 -21.3988 -13.8142 -64.3527
2 -18.5413 -13.9743 -65.0828
1 -17.9925 -12.1596 -65.5881
2 -15.7708 -15.5615 -64.2024
1 -14.5441 -14.9919 -65.6782
2 -13.0317 -15.063 -64.5958
2 -14.573 -13.2799 -15.1077
1 -11.8592 -13.5363 -64.748
2 -11.1888 -13.8223 -63.0152
1 -20.8927 -12.9118 -65.8553
2 -21.948 -10.0555 -63.8362
2 -18.5473 -10.6552 -64.3579
2 -16.1565 -12.2322 -64.5542
1 -14.6355 -11.6261 -65.433
2 -14.5082 -10.0241 -15.2052
2 -14.6204 -9.87941 -64.0245
1 -11.6857 -11.1776 -66.3874
2 -12.7284 -11.8607 -65.0676
1 -21.6545 -8.77908 -65.007
2 -19.8684 -7.98199 -64.8892
2 -16.4072 -7.60946 -65.1023
1 -18.1679 -8.74935 -64.7173
1 -14.6862 -8.64367 -65.3572
2 -13.8104 -6.97997 -65.7456
1 -13.31 -6.34712 -64.176
2 -12.4222 -8.12153 -63.7771
2 -21.9869 -21.2633 -59.5506
1 -20.3674 -21.5086 -60.4525
2 -19.9548 -21.3193 -62.1937
1 -18.9297 -20.2078 -62.9507
2 -16.8226 -20.3552 -62.64
1 -21.3404 -20.4624 -17.6745
2 -13.8506 -20.7629 -63.8836
2 -13.7106 -21.9473 -61.1888
1 -15.811 -21.1415 -64.126
1 -12.7494 -20.9685 -62.3839
2 -19.7742 -18.4136 -63.0101
1 -20.858 -16.9784 -62.4105
2 -20.0662 -16.9046 -58.4938
1 -15.8403 -17.4329 -64.6307
1 -15.9994 -18.8952 -61.6769
2 -16.4401 -17.5934 -62.8697
1 -13.257 -17.5135 -61.0891
2 -12.245 -18.1333 -59.7483
2 -22.0881 -16.6331 -63.9195
2 -20.2353 -14.346 -60.0503
2 -19.4211 -12.7388 -61.8961
2 -19.5327 -15.6576 -62.4359
1 -18.6417 -14.5611 -61.1561
2 -16.9111 -14.0761 -62.0652
2 -14.1962 -14.4152 -61.9595
2 -15.1266 -16.7688 -60.7657
1 -15.6508 -15.5431 -62.3187
2 -12.4574 -16.6039 -62.5255
1 -12.3591 -14.8418 -61.7426
2 -12.5795 -13.1377 -60.4403
1 -20.7638 -12.501 -60.348
2 -22.1006 -11.7622 -61.5813
1 -21.771 -9.86876 -62.1021
1 -16.3312 -12.3649 -62.7362
1 -18.9377 -11.1479 -62.5445
2 -17.2104 -10.9304 -61.9339
1 -13.3683 -9.47581 -62.7124
2 -11.8496 -10.4181 -61.9757
1 -11.4928 -11.7406 -60.4728
2 24.7825 -8.18375 -61.8072
2 -17.6205 -8.12408 -62.9302
2 -14.3199 -8.94407 -61.2271
1 -13.6907 -7.5209 -60.05
2 -17.2517 -8.96287 -60.1657
2 -14.887 -6.06486 -63.2297
2 -11.9945 -7.14298 -60.6798
2 -18.8911 -21.2118 -59.2498
1 -19.2783 -20.9644 -57.1908
2 23.8527 -14.5577 -62.5057
1 -17.5129 -20.0152 -59.108
2 -16.1385 -21.2997 -59.697
2 -15.7252 -17.9315 -57.586
1 -14.3874 -20.6386 -60.0265
2 -13.7404 -20.6565 -58.1973
1 -10.706 -19.3075 -57.0953
2 -9.93327 23.5908 -57.1717
2 -20.6225 -19.7284 -57.6217
1 24.9137 -20.2213 -57.8844
2 -17.1249 -18.5641 -60.2264
1 -16.345 -17.0338 -59.3055
1 -17.3429 -18.1175 -56.3205
2 -14.169 -19.246 -61.2946
1 -12.0504 -16.6591 -58.4378
2 -12.5288 -15.4325 -59.664
2 24.9463 -14.851 -58.1914
1 -21.2461 -15.7871 -59.3134
2 -22.2448 -12.0441 -58.9781
2 -17.6612 -15.6426 -59.5694
1 -18.654 -15.5273 -58.0528
1 -14.5536 -13.1648 -60.6636
2 -14.6462 -13.374 -58.7912
1 -12.9006 -13.9916 -58.5003
2 -11.7414 -12.9913 -57.4503
2 -19.7277 -11.4973 -59.0777
2 -19.1872 -8.67734 -58.0379
2 -15.6143 -10.3972 -58.8145
2 -14.8516 -11.6966 -61.6928
1 -15.5654 -12.0677 -57.8664
2 -11.2096 -10.6035 -58.91
1 -19.9981 -9.77389 -59.4236
2 -21.7838 -9.05761 -59.3538
1 -18.469 -8.22374 -61.2625
2 -19.8432 -9.77748 -61.4192
1 -16.8216 -8.97218 -58.2781
2 -16.9411 -7.12692 -57.8298
1 -15.7852 -10.1197 -60.8145
2 -13.5627 -8.07587 -58.2804
1 -12.1406 -9.38639 -57.9372
2 -10.669 -8.20897 -58.0945
2 -19.1909 -21.1366 -55.2399
1 -21.4866 24.7184 -55.8557
1 -14.2082 -19.0422 -57.208
2 -14.1656 -19.6679 -55.4308
2 -17.7395 -19.742 -57.217
1 -20.7461 -17.9617 -57.0548
2 -16.4542 -17.9963 -54.6521
2 -12.4514 -18.006 -57.0889
2 -19.6465 -14.1494 -57.2698
2 -17.6261 -16.1916 -56.5336
2 -12.8161 -15.3585 -57.1212
2 -17.2783 -12.3729 -57.1926
2 -14.5905 -11.6941 -56.2724
1 -13.621 -7.01994 -56.7492
2 -12.5758 -9.69018 -56.1735
2 -21.6655 -3.95835 -65.2459
1 -22.3096 -3.06282 -63.7549
2 -18.249 -5.4845 -64.3347
1 -20.0632 -6.04168 -64.6606
1 -17.6258 -3.65516 -64.7292
1 -16.7553 -6.48621 -63.3617
2 -15.8102 -3.768 -65.2846
1 -12.3086 -3.47366 -63.5151
2 -12.1101 -4.93329 -64.7726
2 -18.7666 -2.59327 -65.7989
1 -20.3711 -3.07632 -66.393
1 -19.4579 -1.29651 -63.3956
2 -18.1247 -2.68013 -63.1467
2 -13.9578 -2.31633 -63.6935
1 -15.1687 -1.95261 -64.9674
2 -14.6601 -1.93226 -15.3174
2 -11.3032 -2.00663 -63.9584
1 -21.861 2.66686 -64.5834
2 -19.4107 0.0193039 -64.8402
1 -18.0404 -0.5142 -66.0569
2 -16.484 -0.725352 -64.9522
2 -12.2041 0.756378 -64.0328
2 -21.3952 -5.93448 -63.2822
1 -20.7909 -5.74433 -61.4103
2 -19.7046 -4.25427 -61.4387
2 -16.7322 -5.15583 -61.9587
1 -14.8132 -4.877 -61.587
2 -14.9031 -6.17839 -60.0188
2 -12.7694 -4.60135 -62.0476
1 -11.434 -5.26306 -60.7955
2 -21.3774 -1.43126 -63.8434
2 24.8188 -1.7321 -60.3457
1 -20.9496 -2.63626 -60.7797
2 -19.8099 -1.14754 -61.6158
1 -17.9933 -3.75026 -61.5557
2 -17.8057 -2.58594 -60.1008
2 -15.1808 -2.9379 -61.4104
1 -14.1075 -1.58388 -62.0112
2 -12.3912 -1.40227 -61.3565
1 -11.2626 -2.13196 -60.0116
2 -20.0343 1.25952 -60.1833
1 -18.8586 -0.2685 -60.3024
2 -17.1052 0.470887 -60.9777
1 -15.2599 0.798675 -60.5045
2 -14.5276 0.347108 -62.1837
1 -11.3785 -0.354057 -62.6847
2 -22.2479 -5.93052 -60.1392
1 -21.7082 -4.94123 -58.6708
2 -20.5041 -6.02071 -57.5757
2 -20.5286 -3.38884 -59.125
2 -19.5391 -6.98152 -60.2665
1 -18.8354 -6.51517 -58.3506
2 -17.8883 -4.83869 -58.4644
1 -16.0533 -5.48224 -58.5266
2 -14.6537 -5.50763 -56.9787
1 -13.3635 -3.90942 -57.9987
2 -11.9889 -4.85502 -58.8929
1 -10.7377 -5.94533 -57.914
2 -19.9528 -3.52982 -56.5624
2 -19.3299 -1.15508 -58.5361
1 -18.8272 -3.05113 -58.246
2 -17.4003 -2.06163 -57.0568
1 -15.9253 -2.34745 -59.7685
2 -15.1081 -3.80099 -58.9127
2 -15.0925 -0.728617 -59.4177
2 -12.6044 -2.24207 -58.7292
1 24.2446 -0.18132 -59.613
1 -18.4034 -0.390964 -57.1551
2 -16.9344 1.01369 -56.9961
1 -13.6067 -0.589356 -58.313
2 -12.2829 0.638745 -58.2101
2 -12.0449 -6.22123 -56.4799
2 -14.4208 -0.807122 -56.676
2 -12.8353 -3.44267 -56.3209
1 -15.5605 0.649644 -55.8415
2 -20.7712 24.4632 -54.117
1 -17.467 -20.4767 -52.146
2 -15.895 -20.5949 -53.075
1 -12.7672 -20.8635 -54.8274
2 -10.9904 -20.177 -55.4923
2 -19.2149 -18.3689 -55.8952
1 -14.793 -18.7621 -53.7695
2 -13.4667 -17.1404 -54.016
1 -12.6207 -16.6308 -55.5667
1 25.0821 -14.9472 -56.3226
2 -20.9391 -16.2835 -56.0383
1 -16.8293 -15.1059 -55.1213
2 -18.3342 -13.9405 -54.7532
2 -15.3656 -14.4411 -55.9459
1 -14.2102 -13.1785 -55.2819
1 -11.1803 -14.1037 -55.9828
2 -10.5749 -15.8475 -55.5363
2 -21.0785 -8.48434 -55.0856
1 -19.2174 -12.3813 -57.5256
2 -19.3552 -10.9995 -56.1629
1 -17.5772 -11.1722 -55.6969
2 -16.5437 -9.63757 -56.2542
1 -14.4805 -9.95979 -55.5235
2 -14.4666 -10.3177 -53.6872
2 -12.5162 -13.7506 -54.6003
1 -19.8254 -9.22826 -56.3029
1 -20.621 -5.13014 -55.9854
1 -16.6746 -7.77013 -55.0751
2 -14.624 -7.99953 -55.4567
1 -11.1958 -8.91633 -54.8032
2 -12.5206 -8.09128 -53.4679
2 -21.1693 -19.8935 -52.0727
1 24.8343 -19.8511 -53.1907
1 -21.2754 -19.9822 -50.332
2 -21.5577 -18.6942 -54.3829
2 -18.4459 -19.117 -52.9342
2 -16.2489 -22.1511 -50.7137
2 -17.4147 -19.6419 -50.2894
1 -14.8646 -21.8278 -52.1795
2 -13.3534 -19.8539 -53.1496
1 -12.9825 -19.8855 -51.3746
2 -19.8303 -16.2301 -53.8184
1 -21.6539 -16.8674 -54.0064
1 -19.6279 -19.3757 -54.3033
2 -16.4679 -15.6734 -53.3771
2 -18.4641 -16.5657 -51.4623
1 -17.2692 -17.4827 -52.8343
1 -17.6671 -16.065 -49.9372
1 -20.1867 -15.8103 -51.9751
2 -15.5871 -18.0139 -52.0087
2 -13.3515 -16.63 -48.1573
1 -12.5746 -16.3912 -52.4465
2 -12.1187 -17.7826 -51.2665
1 -19.8164 -14.9515 -55.2333
2 -19.889 -13.9472 -52.0831
1 -18.6659 -12.8773 -53.3054
2 -17.1817 -13.0947 -52.0283
2 -14.9169 -13.0223 -53.3933
2 -13.7482 -14.9046 -52.1602
1 -12.8642 -10.2511 -52.7168
2 -21.383 -13.8285 -55.2001
1 25.0603 -9.39675 -54.203
2 -20.194 -11.7575 -53.254
1 -20.0926 -10.4074 -51.9305
2 -21.7462 -9.45926 -52.3007
2 -17.3922 -11.4377 -53.8822
1 -15.8957 -11.4056 -52.5566
2 -16.56 -10.1073 -51.1922
1 -14.1643 -7.23607 -53.4311
2 -12.284 -11.8085 -51.9662
2 -21.0922 -6.85153 -52.6738
1 -19.7969 -7.66063 -53.8234
1 -20.3294 -7.53082 -50.9938
2 -16.9261 -7.13153 -50.4303
2 -18.458 -8.33903 -55.0319
2 -19.0777 -8.64525 -52.1179
1 -17.0485 -8.42004 -51.7863
2 -16.0036 -7.91648 -53.272
2 -12.8435 -9.13773 -51.1951
1 -12.0018 -7.49059 -51.6253
2 24.5798 -19.3116 -49.7444
1 -18.4808 -20.0031 -48.7314
2 -20.0286 -18.8992 -49.2427
2 -17.6369 -19.3469 -47.0466
2 -19.0189 -21.4863 -47.7844
2 -13.6041 -21.5743 -50.8077
2 -13.9649 -19.0095 -49.7396
2 -11.277 -20.138 -50.7694
2 -12.5142 -21.7927 -48.2572
2 -22.0027 -17.1164 -47.5044
2 -21.0343 -15.5931 -49.9486
1 -20.6277 -17.0117 -48.7173
2 -18.762 -16.5212 -48.0944
1 -17.2688 -17.6077 -47.2299
1 -15.7946 -18.703 -50.2661
2 -16.3182 -17.287 -49.0029
1 -15.0796 -15.6399 -48.584
2 -14.2044 -14.0638 -47.9457
1 -12.3942 -17.7771 -49.3339
1 -20.173 -13.5393 -50.2424
2 -21.5158 -11.5203 -47.9991
2 -18.4179 -14.1376 -49.5382
1 -16.8469 -13.0634 -50.1501
1 -15.5907 -14.4512 -52.3461
2 -16.047 -14.9563 -50.2147
2 -12.1751 -13.3362 -49.4564
1 -13.7633 -12.4067 -49.012
2 -15.0033 -12.3838 -50.6366
2 -19.9612 -11.568 -50.4181
2 -18.817 -10.4683 -47.3799
1 -17.7018 -12.1479 -46.9315
2 -16.8234 -11.8729 -48.7666
1 -15.8877 -10.3829 -49.4399
2 -14.115 -10.5781 -49.1426
1 -11.8949 -10.3939 -46.91
2 -11.1786 -10.5491 -48.9028
1 -20.0858 -10.5368 -48.8117
2 -20.612 -8.78088 -49.4963
1 -21.0694 -7.49652 -48.1271
2 -16.6026 -8.83239 -48.6068
1 -19.3725 -5.21836 -48.5184
1 -15.7792 -7.21304 -48.9352
2 -13.9386 -7.46854 -49.4605
1 -12.7848 -8.95234 -49.3344
2 -11.0604 -7.89305 -49.7456
2 -19.8336 -19.6599 -45.0797
1 -18.5568 -20.7444 -45.8956
1 -15.5149 -21.2225 -46.3796
2 -14.1317 -19.395 -46.365
2 -15.2086 -21.091 -48.2869
1 -13.4855 -20.1475 -48.0242
2 -10.6929 -21.811 -46.1596
1 -22.3187 -16.0732 -45.8387
2 -15.791 -16.5091 -46.617
2 -19.3836 -13.1224 -46.7353
1 -21.2983 -12.589 -46.4636
2 -16.9387 -13.9993 -46.9957
1 -18.6987 -14.611 -47.7037
1 -12.8466 -13.2819 -45.8351
2 -11.3833 -14.3149 -46.5933
2 -18.2209 -12.0524 -44.6103
2 -12.9744 -11.9041 -47.0436
2 -21.5149 -8.92775 -46.9531
1 -17.3519 -9.2967 -46.9177
1 -13.7711 -7.48653 -46.3489
2 -15.3888 -6.92969 -47.0874
2 -12.8549 -8.80591 -47.3521
2 -19.5605 -5.78025 -54.4599
1 -18.0505 -4.83215 -53.8994
2 -16.8464 -5.78317 -54.9315
1 -15.2596 -4.88152 -55.4016
2 -13.8673 -5.62977 -54.3598
1 -12.0787 -4.7137 -55.0435
2 -10.5512 -5.24563 -54.2344
2 -21.299 -3.30544 -54.0878
1 -19.998 -2.28132 -55.1806
2 -18.2207 -3.03359 -54.2453
1 -17.0483 -1.90353 -55.1869
2 -15.4103 -3.04918 -55.0093
1 -13.7838 -1.96786 -55.3432
2 -12.7808 -0.805387 -54.292
2 -12.7113 -3.45742 -53.5962
2 -18.8343 -0.59587 -55.3286
1 -19.9611 0.226912 -54.0612
2 -16.0899 -0.462638 -54.3252
1 -12.7338 1.04106 -54.3339
2 -21.0263 -3.96888 -51.5538
1 -21.5372 -5.0816 -53.3266
1 -16.7491 -5.26237 -50.9408
2 -18.3682 -4.96595 -51.9772
2 -17.9551 -4.28643 -49.525
1 -19.1983 -3.58881 -51.0117
2 -13.5115 -6.29087 -51.7974
2 -15.8845 -4.44791 -52.4294
1 -14.0897 -4.2996 -52.671
2 -13.4658 -3.8605 -50.9364
2 -10.865 -5.924 -51.2715
2 -19.5056 -1.98803 -50.0481
1 -21.6607 -2.20245 -52.5454
2 -12.8386 -1.25763 -51.5308
2 -10.5843 -3.09217 -51.9027
1 -11.6697 -1.99818 -52.9588
2 -10.5121 -0.354306 -53.104
2 -20.3544 -0.819088 -52.4857
1 -19.2892 -0.421909 -50.961
2 -20.0306 0.912151 -49.9488
2 -18.4715 1.28485 -53.4289
2 -17.4342 -0.26067 -51.182
1 -16.6618 0.677712 -52.774
2 -15.2656 0.754994 -51.2368
1 -13.4362 0.521625 -51.2252
2 -20.4843 -6.10221 -49.784
1 -22.0952 -4.48823 -50.0532
2 -20.7149 -3.85864 -48.7413
1 -16.5085 -3.37503 -48.4843
1 -13.6669 -5.54107 -50.0119
2 -15.4965 -5.32225 -49.4609
1 -10.3835 -5.71374 -49.4324
2 -12.2182 -5.28197 -48.8284
2 -20.9263 -0.954608 -47.7545
1 -19.8899 -2.36336 -48.0383
2 -17.908 -1.97781 -47.9301
1 -15.9292 -0.33461 -49.8628
2 -15.5201 -2.18725 -49.5673
1 -13.4118 -2.19231 -49.9341
1 -10.5556 -1.63825 -48.2729
2 -12.2457 -2.58574 -48.3613
2 -16.4356 0.582771 -48.2035
2 -13.859 -0.351217 -49.3454
1 -12.943 0.598796 -48.0256
2 -11.5971 1.09909 -50.7075
2 -11.2091 0.101487 -47.6898
2 -19.7421 -6.33775 -47.1512
1 -16.7474 -6.04496 -46.0092
2 -16.3871 -4.40803 -46.9429
2 -12.7293 -5.97422 -46.0768
2 -13.7572 -3.48036 -45.9606
1 -15.5801 -3.27453 -45.6729
2 -10.8164 -4.17215 -45.9426
1 -12.366 -4.31491 -47.1492
1 -20.8765 0.118536 -46.2806
2 -19.6423 -3.24346 -46.2016
2 -15.9299 -1.30477 -45.7362
1 -17.3009 -0.506308 -46.9735
2 -21.7948 2.0452 -45.8898
2 -18.9397 0.584248 -46.7149
2 -13.9749 1.06749 -46.3786
1 -15.512 1.99722 -47.217
1 -21.5323 -20.1669 -44.079
2 -16.7627 -20.7481 -44.9558
2 -11.134 -21.7483 -43.0457
2 24.9762 -15.0815 -43.9157
1 -13.9558 -17.5276 -46.4078
1 -19.2331 -18.5619 -43.6668
2 -12.4476 -17.1357 -45.3147
1 -19.2641 -13.5815 -44.7229
1 -15.8922 -14.8983 -45.6235
2 -14.5641 -13.6848 -45.0769
1 -10.8513 -16.0073 -45.6297
2 -12.3779 -12.5645 -44.1194
1 -19.7384 -10.9826 -43.9906
2 -16.551 -10.8557 -46.1012
1 -21.2262 -8.10565 -45.2594
2 -19.7054 -9.11632 -44.6789
2 -17.4459 -7.88374 -45.6494
2 -13.9382 -7.79537 -44.326
2 -20.7901 -21.5513 -42.9784
1 -19.883 -20.8623 -41.464
2 -18.5383 -20.0303 -42.5681
2 -22.3261 -21.1364 -40.4762
1 -17.0862 -20.9357 -43.0745
2 -15.919 -19.8594 -41.9646
2 -15.145 25.1301 -41.685
1 -12.4042 -20.932 -41.7402
2 -13.0928 -19.5503 -42.9423
1 24.7417 -17.8401 -42.8289
2 -20.8832 -18.5699 -42.7701
2 -21.9879 -16.5083 -41.5905
2 -17.8049 -17.5162 -43.1124
1 -16.546 -18.072 -41.7301
2 -14.947 -17.1925 -42.3298
1 -13.4682 -18.1507 -41.6807
1 -12.0419 -18.4495 -43.9711
2 -11.9102 -17.1452 -42.5022
2 25.0529 -12.1313 -42.0557
1 -21.3529 -14.9494 -42.574
2 -19.6217 -14.9943 -43.5655
2 -16.3977 -15.0285 -43.7739
1 -17.9322 -15.6295 -42.9486
1 -15.3016 -15.3138 -41.951
2 -13.8801 -13.964 -42.0333
2 -20.8974 -12.3311 -44.7531
2 25.0987 -8.31442 -43.6938
1 -20.4362 -9.08671 -39.5396
2 -19.9902 -10.7564 -42.221
1 -16.4643 -11.0867 -44.1471
1 -14.2174 -12.7707 -43.5146
2 -15.6112 -11.9272 -42.5233
2 -14.5572 -10.8491 -44.5534
1 -14.7804 -10.7612 -41.1001
1 -10.9737 -12.5825 -42.8208
1 -21.4559 -7.54876 -42.286
2 -17.3856 -9.7875 -43.1942
1 -18.2356 -8.06118 -43.9566
2 -17.3025 -6.98627 -42.6763
1 -13.496 -9.56227 -43.9806
2 -13.491 -9.72505 -42.0472
2 -11.8012 -9.68753 -44.8562
2 -11.4378 -7.55648 -42.0563
2 -20.0434 -19.5732 -40.3046
1 -21.5122 -20.3226 -39.0548
2 -20.2954 -21.4148 -37.9139
2 -17.1474 -20.6789 -39.4424
1 -18.3638 -21.8761 -38.4584
1 -15.5437 -21.0596 -40.34
2 -13.736 -20.3013 -40.3127
2 -14.68 -22.28 -39.0555
1 -13.1648 -21.0173 -38.5418
2 -11.051 -20.2226 -40.6569
2 -11.8781 -19.6412 -37.8712
2 -19.9295 -16.7624 -39.4172
1 -20.7896 -17.7558 -40.7246
2 -16.9458 -17.6504 -40.048
1 -17.3482 -18.9067 -38.6724
2 -12.8397 -17.7315 -39.953
1 -11.186 -18.6191 -39.3248
2 -20.6356 -13.9925 -41.0954
1 -20.0954 -14.8943 -39.5045
2 -22.1097 -16.2635 -37.5326
2 -17.0887 -15.1714 -41.3564
2 -18.3959 -14.6586 -38.8819
1 -16.8518 -15.7182 -39.3675
2 -16.1508 -13.4538 -39.2242
1 -13.4262 -16.126 -39.2658
2 -15.0276 -15.7161 -39.9813
1 -12.7087 -13.38 -40.6858
2 -12.0961 -14.7971 -39.542
1 -10.5695 -15.2036 -38.5673
1 -20.7926 -12.0204 -41.162
2 -20.9745 -11.1038 -39.4164
1 -18.1042 -10.4132 -41.513
2 -18.5675 -12.0828 -40.6013
1 -17.8778 -12.8168 -39.1088
2 -16.5168 -10.3512 -40.5157
2 -13.778 -11.9316 -39.9035
1 -14.9081 -12.3909 -38.5078
2 -11.6042 -11.8205 -41.2059
1 -10.9313 -10.4591 -40.0783
2 -21.9643 -5.79021 -41.7597
2 -20.2965 -8.84888 -37.5434
1 -21.6758 -9.44787 -36.4323
2 -18.7993 -9.00249 -40.5017
1 -18.6473 -7.06693 -41.0339
2 -16.9582 -7.01904 -39.9842
1 -16.409 -8.67967 -39.3644
1 -13.0186 -8.20847 -40.9464
2 -14.4975 -8.98118 -39.6444
2 -11.9088 -8.75108 -39.3793
1 -10.7085 -7.54174 -38.1898
1 -19.1891 -19.7196 -36.018
2 25.0386 -21.705 -35.1202
2 -17.9052 -20.8848 -36.8011
2 -14.0756 -20.8706 -36.5672
1 -16.0552 -20.5517 -36.3762
2 -12.4525 -20.4122 -34.1659
2 -20.9517 -18.9392 -36.3578
1 -20.6941 -17.6132 -37.5879
2 -18.9574 -18.6231 -37.8344
2 -15.8496 -19.0313 -37.5217
1 -15.139 -17.5165 -36.7146
1 -12.6005 -19.6243 -36.033
2 -10.6952 -17.0096 -38.178
2 -10.9394 -18.8374 -35.4937
2 -19.7547 -16.1811 -36.5988
1 -20.8508 -14.7048 -36.4276
2 -16.673 -16.5794 -37.633
1 -18.0093 -16.5983 -36.1325
2 -13.948 -16.1847 -37.3966
1 -13.2946 -14.6185 -36.5841
2 -11.4449 -14.3606 -36.9809
2 -20.8572 -13.824 -38.2041
1 -21.8345 -12.2487 -38.1973
2 -18.0795 -12.1062 -37.4319
1 -17.9916 -13.2529 -35.8121
1 -16.8992 -10.6127 -36.6213
2 -14.1917 -13.0949 -36.9599
2 -15.1088 -10.7466 -37.5341
1 -13.9049 -11.2357 -35.9461
2 -12.4994 -10.5599 -37.0887
2 -10.6415 -11.9055 -35.439
1 -10.4992 -10.6099 -36.7884
2 -21.602 -11.4234 -36.5048
1 -18.7082 -8.47161 -36.766
2 -17.2227 -9.14057 -37.7511
2 -18.4124 -9.86059 -35.5448
1 -13.5117 -9.25419 -38.0061
2 -14.38 -7.78811 -37.1763
2 -10.6555 -8.63686 -36.5702
1 -19.9544 -5.16456 -45.5211
2 -21.5901 -6.1265 -45.1327
2 -18.2672 -5.5935 -44.8944
2 -15.6616 -5.57266 -44.554
1 -13.2113 -3.23015 -44.2013
1 -10.9445 -6.22464 -45.3904
2 -20.4128 -0.632373 -44.624
1 -19.5471 -2.37691 -44.555
1 -14.5015 -0.0783658 -44.7603
2 -20.5572 -3.9065 -43.8674
1 -20.5462 -4.47566 -42.1225
2 -19.691 -7.26836 -42.7465
2 -18.7264 -4.79319 -41.6003
1 -17.2007 -5.09245 -43.178
2 -15.6906 -4.8257 -42.0117
1 -14.4718 -6.27236 -43.2919
2 -12.9837 -5.10125 -43.4127
1 -11.5711 -5.77304 -42.5039
2 -21.3779 -2.93796 -41.2785
2 -16.7997 -3.39544 -44.1302
2 -18.4542 -1.45432 -43.3218
1 -16.4705 -1.72632 -43.4069
2 -16.0044 -1.47728 -41.5404
2 -14.4077 -1.80779 -43.9178
2 -12.8947 -0.816252 -41.1269
2 -11.684 -2.56007 -43.4188
1 -11.8558 -2.34785 -41.6569
2 -20.5138 -0.173154 -41.783
1 -21.8611 1.15724 -41.7529
2 -16.0615 0.351243 -43.4807
1 -19.2635 0.181889 -43.1623
2 -17.9221 1.10393 -41.6996
2 -13.1217 1.03659 -43.8826
1 -12.5454 0.840932 -42.1355
2 -10.6017 0.767531 -41.8071
2 -20.0339 -6.96611 -39.6187
1 -18.3303 -3.78401 -40.0856
2 -16.541 -4.01797 -39.7357
1 -15.6125 -5.71259 -40.4406
1 -15.6977 -3.51084 -38.1792
2 -14.0288 -6.70821 -41.403
2 -14.2772 -5.30012 -39.2458
1 -12.5558 -4.73347 -39.8117
2 -13.3385 -3.41815 -41.0713
2 -11.0766 -5.07391 -40.9519
2 -12.0476 -6.14005 -38.2529
2 -21.3391 -1.39831 -38.8545
1 -20.3933 -1.52381 -40.5806
2 -19.1756 -4.31351 -38.5537
2 -18.6137 -1.86426 -40.0504
1 -17.702 -1.01479 -38.6002
1 -14.466 -1.95882 -40.6463
2 -14.4429 -2.24468 -38.7535
2 -11.7632 -3.42114 -38.5287
1 -16.0864 0.505094 -41.4737
2 -16.5965 0.0978255 -39.4679
1 -15.8147 1.23972 -38.304
2 -14.4806 1.26715 -41.2393
2 -11.8002 -0.216383 -38.4268
1 -19.8592 -5.96371 -38.0502
2 -21.0716 -5.3709 -36.7019
2 -15.6881 -4.97673 -37.0812
2 -18.4431 -6.68681 -36.9671
1 -14.0313 -5.97502 -37.4855
2 -13.1347 -4.9722 -36.1315
1 -11.493 -4.52321 -37.0202
1 -20.5673 -0.955104 -37.2609
2 -20.2391 -2.44671 -36.0496
2 -16.7216 -1.88193 -37.1898
1 -12.7171 -1.82335 -37.9256
2 -13.402 -1.60037 -36.1885
1 -15.1356 -0.922151 -36.2237
2 -11.2267 -3.35655 -35.6319
2 -18.9803 -0.048125 -37.5944
2 -14.4537 0.330787 -37.5727
1 -12.8471 1.10203 -37.4484
2 -12.0508 1.35847 -35.8709
2 -9.89484 -20.865 -33.5564
2 -16.1398 -17.2312 -35.0372
2 -13.7822 -18.1972 -35.6245
1 -10.4045 -13.764 -35.5085
2 -15.0163 -9.76487 -34.9589
1 -14.8201 -7.97388 -35.3623
2 -16.3549 -6.96111 -34.9092
2 -21.7515 -19.4922 -33.6783
1 -20.1694 -19.5807 -32.8377
2 -19.5044 -20.9363 -34.4929
2 -16.4779 -20.2974 -34.5484
2 -18.4518 -18.161 -35.1198
2 -18.4059 -18.9853 -32.5652
1 -17.0598 -18.6294 -33.9135
2 -15.7753 -18.6819 -32.4996
1 -13.4022 -20.9785 -32.5428
1 -11.2801 -22.1434 -33.958
2 -11.3211 -19.1292 -31.6542
2 -21.0542 -18.1782 -31.7578
1 24.8908 -17.8085 -33.0115
2 -17.3609 -16.4552 -32.6234
2 -14.5097 -16.1449 -33.1191
1 -13.2526 -16.8937 -34.429
2 -11.6676 -17.3158 -33.5265
2 -22.2363 -14.8552 -35.2606
2 -19.8864 -15.3379 -33.0894
1 -21.5342 -14.8237 -33.5108
2 -21.9678 -12.8095 -33.4771
2 -17.5539 -14.9551 -35.198
1 -16.2774 -15.5962 -33.7922
2 -18.1608 -11.7888 -32.816
2 -15.6327 -13.8961 -33.1903
2 -13.2656 -15.0633 -34.8555
1 -13.8096 -13.7434 -33.3202
2 -12.6468 -13.735 -31.7471
2 -10.6605 -14.3865 -33.8114
1 -10.855 -13.2549 -32.0969
2 -22.3367 -8.86828 -34.808
1 -20.8306 -11.9763 -34.8462
2 -19.767 -13.4214 -35.2394
1 -16.4482 -12.2531 -33.3731
2 -16.606 -12.1619 -35.3191
2 -15.1103 -11.4205 -32.4007
2 -13.2556 -12.2857 -34.4194
1 -11.6309 -11.1247 -34.0051
2 -10.6607 -11.391 -32.4468
1 -22.0197 -9.39844 -32.9188
2 -21.8451 -7.57784 -32.5408
1 -17.2564 -7.3424 -33.263
2 -20.4715 -10.4187 -33.6493
1 -18.6356 -9.79675 -33.6671
2 -16.9154 -9.19864 -32.9831
2 -13.5274 -7.20755 -34.1074
2 -12.3483 -9.49355 -34.3645
1 -11.0545 -8.1321 -34.712
2 -11.0344 -7.94467 -32.45
2 -20.7301 -21.7725 -28.2624
2 -20.2676 -20.9403 -31.4868
1 -21.1645 -20.8671 -29.8858
2 -20.3423 -19.3118 -29.3075
2 -16.9995 -19.9489 -30.0086
1 -15.9546 -21.3559 -30.9812
1 -13.5325 -20.8364 -29.2841
2 -14.2195 -20.3803 -30.9297
2 -16.0188 24.7443 -29.845
2 -20.4697 -15.6574 -30.4051
1 -20.4925 -17.5425 -30.1546
2 -18.7055 -17.2816 -30.4106
1 -18.8712 -15.6898 -31.7025
1 -17.3557 -18.2972 -31.099
1 -15.3127 -16.5234 -28.6025
2 -15.921 -17.2887 -30.2411
1 -14.777 -17.368 -31.7948
2 -13.2628 -16.7594 -30.9121
1 -12.1351 -16.3962 -28.754
1 -11.6255 -17.2567 -31.5181
2 -10.9737 -17.4363 -29.647
1 -21.8393 -12.3304 -31.4228
2 24.5373 -13.6431 -30.685
2 -17.9841 -14.3348 -30.6593
1 -20.543 -14.1904 -29.3314
2 -16.6967 -12.3173 -30.0791
1 -18.4576 -12.4031 -30.9772
2 -15.0379 -14.7046 -29.6403
1 -13.4981 -13.7843 -30.0127
2 -12.1814 -14.5463 -28.9371
2 -20.2564 -12.9448 -30.8959
2 -21.6497 -10.416 -31.3106
1 -20.9084 -10.4825 -29.5182
2 -18.9325 -10.8096 -29.9653
2 -16.0436 -9.74013 -29.7613
1 -15.2124 -11.3282 -30.4031
2 -13.631 -11.9461 -29.6963
2 -10.8647 -12.1817 -29.2028
1 -21.7673 -6.41462 -30.8667
2 24.504 -10.179 -29.0129
2 -17.7435 -7.81934 -29.973
1 -18.1422 -9.42856 -29.1054
1 -15.0555 -9.73531 -33.0874
1 -12.9407 -7.44239 -32.1341
2 -14.3193 -8.71909 -31.7192
2 -16.3193 -6.74848 -31.7876
2 -12.7013 -7.13665 -30.129
1 -11.0546 -7.89549 -29.5062
2 -21.1593 -19.4837 -26.4117
2 23.9415 -21.1743 -27.6301
2 -17.7144 -20.764 -27.2399
1 -16.5141 -19.7314 -28.235
2 -12.9813 -21.679 -25.9529
2 -14.6021 -20.0884 -28.0845
1 -11.6052 -21.0044 -27.0593
1 -20.2532 -18.5276 -27.5203
2 -21.2067 -17.1684 -28.4068
2 -19.5648 -16.148 -25.5368
2 -18.5911 -17.8501 -27.4131
1 -17.3992 -17.282 -26.1843
2 -16.7316 -15.5836 -27.8309
2 -15.9861 -18.1799 -27.2393
1 -13.9692 -18.5326 -26.6346
2 -13.6735 -17.0387 -27.9964
2 -12.1073 -19.1607 -26.7477
1 -11.8464 -16.0032 -25.6065
1 -19.2257 -14.4505 -26.2768
2 -19.159 -14.3275 -28.0385
2 -16.2309 -13.0324 -27.6473
1 -16.8731 -14.0139 -29.1453
2 -12.4215 -12.4611 -27.0993
2 -11.0163 -16.6004 -27.1178
1 -10.8628 -13.5764 -27.8972
2 -19.0937 -11.4713 -26.2693
1 -20.8012 -11.9636 -26.6841
2 -21.1641 -12.1779 -28.5257
1 -18.5193 -9.62496 -26.2
2 -17.2302 -9.25195 -27.4552
2 -14.1698 -10.1495 -27.0568
1 -12.8521 -11.0096 -28.1631
2 -11.5447 -9.65109 -28.2058
1 -20.9302 -7.64493 -27.8414
2 25.1271 -7.77443 -26.5594
2 -20.086 -9.22861 -28.3408
2 -19.7403 -8.36054 -25.802
1 -15.4195 -8.7138 -27.6448
2 -15.1581 -7.296 -28.8046
2 -14.8241 -7.81991 -25.9846
1 -14.4867 -5.9814 -26.1702
2 -10.496 -7.19822 -27.7317
1 -10.297 -8.68151 -26.5914
2 -11.9201 -8.40722 -25.5944
2 -10.0233 -21.3949 -26.2431
1 -16.314 -14.2531 -26.2331
1 -13.2475 -12.7296 -25.4226
1 -13.5862 -9.30426 -25.2913
1 -20.1052 -4.18757 -35.6934
1 -17.1371 -5.66096 -36.0736
2 -18.129 -4.19146 -35.6584
1 -17.5151 -2.39708 -35.3785
2 -18.9546 1.33835 -35.2296
2 -20.0743 -4.91979 -33.9154
1 -20.3458 -6.61334 -33.2205
2 -19.0417 -7.69492 -33.7959
2 -16.4065 -3.5517 -32.3135
1 -12.975 -5.3539 -34.3022
2 -10.9754 -6.19306 -34.3885
1 -10.2712 -6.13693 -32.2269
2 -12.8734 -5.54178 -32.3669
2 -21.4355 -0.100415 -35.7161
2 -21.4051 -2.21604 -33.0935
1 -20.5297 -1.17814 -34.3398
2 -18.5751 -1.50579 -34.1463
1 -17.9407 -1.59075 -32.3596
2 -13.3137 -3.38074 -33.5176
2 -16.1233 -1.04881 -32.4415
2 -15.6995 -2.35309 -34.9846
1 -14.92 -2.54906 -32.971
1 -12.4415 -2.0629 -34.5901
2 -10.8287 -1.14166 -34.3306
2 -20.1573 0.351408 -33.1721
2 -13.5558 -0.735293 -33.2892
2 -15.7183 0.54649 -35.0697
1 -15.203 0.260159 -33.3507
2 -10.6172 0.578028 -32.2533
1 -12.2394 -0.43313 -31.951
1 -18.8599 -6.33629 -30.0175
2 -19.9589 -5.98017 -31.3454
1 -20.7134 -3.79552 -32.4231
2 -19.7829 -6.21452 -28.2694
1 -15.8358 -7.98598 -30.4247
2 -17.8398 -4.88201 -29.968
1 -18.4619 -3.13317 -30.0217
1 -13.7379 -5.85352 -29.1945
2 -15.0915 -4.85305 -29.818
2 -10.5117 -4.37431 -31.6247
2 -12.4718 -4.29643 -29.5833
1 -12.4757 -3.81005 -31.5363
2 -20.1399 -3.25195 -29.004
2 -22.2265 -4.65143 -31.4689
1 -20.795 -1.58057 -28.7188
2 -21.3546 -0.39588 -29.9412
2 -19.0963 -2.92598 -31.7202
2 -16.758 -2.24564 -29.4323
2 -14.0623 -2.72193 -31.1602
1 -14.9929 -2.94963 -29.6072
2 -11.4951 -2.04399 -31.7097
1 -20.1517 0.32665 -31.2617
1 -17.2363 -0.320117 -29.3943
2 -18.2923 -0.328795 -31.0012
2 -15.9776 1.18489 -29.4119
2 -13.0976 0.795457 -30.5919
2 -10.5826 0.964302 -29.3086
2 -21.1564 -4.74469 -25.9179
2 -22.0462 -7.2667 -29.355
1 24.5255 -4.9955 -25.6083
2 -16.2371 -5.43954 -26.6387
2 -18.475 -3.54173 -26.7642
2 -13.0839 -5.89505 -27.3901
1 -11.2572 -5.52444 -26.8627
2 -11.6119 -3.54933 -26.6231
1 -20.0408 -4.51083 -27.4917
2 -21.6124 -1.54471 -26.8938
2 -18.8024 -0.455772 -25.7713
1 -17.4782 -1.88128 -26.848
2 -16.3596 -0.385935 -27.2402
1 -14.4404 -1.29251 -26.7501
2 -14.0973 -2.6654 -27.9812
2 -11.7607 -1.10278 -28.4898
1 -12.1894 -2.84141 -28.2779
2 -20.7352 1.44344 -27.4228
1 -19.0493 0.765961 -27.2409
2 -18.8207 -0.810831 -28.2879
2 -13.9286 0.358941 -27.4612
2 -10.8271 1.00195 -25.5732
1 -12.4682 0.571472 -28.7026
2 -13.1913 -1.40617 -25.2916
1 -21.5741 -19.5552 -24.6745
2 -19.4213 -20.1594 -24.2211
1 -18.4573 -21.1845 -25.6114
2 -17.1936 -18.414 -24.6166
2 -16.9235 -21.6443 -24.5783
1 -15.9587 -20.091 -23.8925
2 -14.408 -19.676 -25.024
1 -13.1235 -21.0294 -24.2867
2 -11.5683 -21.8332 -23.4524
2 -12.1842 -19.299 -23.6809
2 -21.0551 -17.9834 -23.5802
1 -21.1011 -16.2796 -24.5294
1 -18.5781 -18.6573 -23.2602
1 -16.4802 -16.5903 -23.4357
2 -17.9711 -17.0808 -22.5303
2 -16.5397 -15.905 -25.1448
1 -13.3033 -17.7174 -23.6941
2 -13.4933 -17.0017 -25.3926
2 -14.9886 -17.6362 -22.7618
2 -12.5687 -16.4499 -22.4413
2 -21.1026 -14.9499 -23.1786
2 -21.2117 -13.6055 -25.7352
1 -21.7186 -13.2953 -23.8497
2 -17.8421 -13.6439 -25.407
2 -14.9788 -13.4248 -25.1993
1 -15.4393 -13.5488 -23.307
2 -13.7355 -13.4534 -22.5882
2 -12.2049 -14.2324 -24.8146
1 -12.237 -14.6686 -22.7633
2 -19.815 -12.2035 -23.5905
2 -17.5788 -10.132 -24.7126
1 -18.2023 -11.9665 -24.5309
2 -12.9828 -11.0023 -24.6543
1 -12.2523 -10.63 -22.9252
2 -21.6128 -9.54468 -23.2298
1 -19.0667 -7.37048 -24.4334
2 23.9079 -6.04674 -24.2238
2 -17.1266 -7.33675 -23.9198
1 -16.5145 -9.03802 -23.6332
2 -14.7029 -9.12022 -23.6605
2 -12.8315 -6.67846 -23.6445
2 -11.8009 -8.87425 -22.7985
1 -11.1251 -7.46207 -24.0554
1 -20.0664 -20.9668 -22.5599
2 -22.3801 -19.8403 -20.7159
2 -19.7549 -19.142 -21.6371
1 -22.2106 -21.7163 -20.5305
2 -17.1204 -19.7569 -22.4118
1 -17.3189 -21.0443 -21.2298
2 -14.5741 -21.2275 -22.9748
1 -14.2122 -22.1329 -21.3655
2 -10.9593 -20.5059 -20.9304
1 -21.6767 -18.2126 -21.855
2 -20.9042 -16.8543 -20.6598
1 -14.6164 -17.5298 -20.7665
1 -17.93 -16.3088 -20.9007
2 -16.0528 -16.2948 -20.4448
2 -18.286 -17.3047 -19.334
2 -13.9967 -16.4534 -19.1535
2 -12.7512 -18.4803 -20.5386
1 -11.2824 -17.533 -21.2732
2 -10.6695 -16.2916 -19.9842
1 -20.8601 -15.1094 -21.2755
2 -20.7772 -13.1526 -20.7205
2 -18.9666 -14.864 -20.8273
1 -18.7759 -13.1517 -19.8877
2 -16.4905 -14.844 -22.7947
1 -15.7058 -14.6339 -19.5072
2 -14.0471 -13.6351 -19.6576
1 -12.5955 -15.1608 -19.3421
2 -11.9217 -14.1801 -20.7665
1 -20.3549 -11.566 -21.9434
2 -20.8527 -10.1766 -20.8002
2 -16.6531 -12.0708 -23.1292
2 -18.647 -11.5311 -20.8537
1 -16.9354 -11.2217 -21.5539
2 -13.6943 -10.9295 -21.7141
1 -12.8853 -12.5315 -20.8983
2 -15.7822 -11.009 -20.2372
2 -11.2698 -11.7527 -21.7297
2 -19.3355 -8.18025 -22.72
1 -20.8796 -8.53145 -21.6791
2 -22.0711 -7.00522 -21.3101
2 -17.1519 -9.39578 -21.8756
1 -18.1746 -8.06339 -21.2262
1 -13.6179 -7.94606 -22.5886
2 -13.8625 -8.08584 -20.6829
2 -10.0044 -10.0547 -19.5254
2 -20.6116 -19.0012 -18.5246
1 -22.0708 23.9368 -17.7907
2 -20.4357 23.1642 -17.3052
2 -18.0071 -20.499 -19.433
1 -19.1738 -19.0855 -19.7742
2 -19.7622 -21.3298 -17.1004
2 -15.8686 -21.3902 -17.8028
2 -13.72 -21.253 -19.7312
1 -15.0313 -20.0558 -18.7513
2 -11.3297 -20.2639 -18.0051
2 24.9034 -20.201 -16.4589
2 -18.6107 -16.0151 -16.5617
2 -15.6087 -19.04 -20.0713
1 -12.2749 -19.9937 -19.6336
2 -13.7084 -18.963 -17.802
2 -16.0639 -15.1535 -17.786
2 -11.5986 -17.2008 -17.3046
1 -11.9728 -19.09 -16.7059
2 -21.3071 -15.7907 -17.945
1 -19.8715 -14.8184 -17.2814
2 -19.3175 -13.2407 -18.0857
2 -16.887 -13.2051 -19.6728
1 -16.0964 -13.7372 -16.3829
2 -17.2559 -12.3258 -15.8989
2 -12.4557 -14.4507 -17.56
1 -11.852 -15.685 -16.017
2 -20.6328 -10.6512 -17.4294
1 -18.8633 -11.738 -16.8611
2 -17.8517 -10.497 -17.9824
1 -16.1946 -11.3999 -18.5561
2 -15.0544 -12.4069 -17.4626
2 -14.9168 -9.78795 -18.36
2 -12.6651 -11.3577 -19.2973
1 -13.2361 -12.6477 -17.6968
2 -11.8092 -11.6683 -16.7666
1 -20.902 -7.37754 -16.0919
1 -21.2618 -10.202 -19.0329
2 24.768 -6.78325 -16.7095
2 -14.7723 -7.4007 -16.6873
2 -17.2688 -8.0069 -19.2531
1 -18.0898 -8.67758 -17.6965
2 -12.4916 -6.23706 -18.2474
1 -14.1404 -10.0226 -20.0779
1 -10.4641 -8.29461 -16.2346
2 -12.1573 -9.04315 -17.2635
2 -22.1868 -21.8941 -18.6751