9160
 Atoms. Timestep: 2000
1 -20.9463 24.3789 -64.7885
2 24.1788 24.3788 -16.3346
2 -19.3411 25.1011 -65.6373
1 -19.7475 -20.5157 -66.0389
1 -17.0081 -18.9955 -66.5776
2 -19.0797 -19.8654 -64.3995
2 -15.7345 -19.2648 -65.3377
2 -11.7693 -19.4846 -63.9031
1 -12.0146 23.537 -15.6385
2 -20.5325 -18.8214 -65.9739
2 -19.8837 -16.1209 -65.3532
1 -22.1665 -18.1476 -14.9684
1 -19.567 -17.9861 -64.5104
2 -17.6777 -17.4884 -65.413
1 -18.1295 -15.6931 -66.0156
1 -13.5974 -19.5516 -65.2255
2 -13.8784 -17.8637 -64.5446
1 -12.1931 -17.5983 -63.535
1 -20.0239 -14.5295 -64.1844
2 -21.0633 -13.0106 -64.6059
2 -18.4654 -14.02 -65.025
1 -17.691 -12.3731 -65.5225
2 -15.6467 -15.6368 -64.3706
1 -14.4404 -15.0813 -65.5769
2 -13.1085 -14.2118 -64.4444
2 -14.478 -13.3977 -66.4681
1 -11.5823 -13.1606 -65.0129
2 -10.7997 -13.4768 -63.2275
1 -20.4291 -11.315 -64.9377
2 -21.5549 -9.80639 -64.3317
2 -18.798 -10.577 -63.773
2 -16.0555 -12.2031 -64.6234
1 -14.392 -11.7675 -65.5806
2 -14.8888 -10.2619 -14.9933
2 -14.3525 -10.2213 -63.8343
1 -11.0546 -10.3109 -66.1325
2 -12.4907 -11.5794 -65.649
1 -21.8486 -8.16757 -65.3588
2 -19.9501 -7.69955 -64.8184
2 -16.8885 -8.51198 -65.4612
1 -18.3714 -8.68729 -64.4005
1 -15.0773 -9.09964 -65.1561
2 -14.4467 -7.41652 -65.3291
1 -13.3823 -6.78618 -63.9984
2 -12.2932 -8.18362 -63.3199
2 -22.0145 -20.9029 -59.5118
1 -20.1504 -21.2169 -59.8706
2 -20.207 -20.6417 -61.5634
1 -18.8093 -20.7471 -62.6232
2 -16.9287 -20.3724 -62.465
1 -20.8687 -19.459 -17.8122
2 -13.9993 -20.6702 -63.7559
2 -13.7856 -21.4329 -61.0022
1 -15.8252 -21.3626 -63.7201
1 -12.8345 -20.3599 -62.2986
2 -20.506 -17.8964 -62.8493
1 -21.1351 -16.2937 -62.4813
2 -19.9282 -16.6698 -58.5194
1 -15.8484 -17.5691 -64.48
1 -16.3408 -18.843 -61.5364
2 -16.346 -17.4122 -62.6508
1 -13.484 -17.4 -60.8357
2 -12.5139 -18.6644 -61.6463
2 -21.8389 -15.37 -63.8356
2 -20.2069 -14.0463 -59.8606
2 -19.1945 -12.2814 -61.1738
2 -19.6828 -14.9586 -62.3529
1 -18.559 -14.197 -61.1132
2 -17.1083 -14.1199 -62.2347
2 -14.565 -13.7955 -62.2853
2 -15.1689 -15.9007 -60.7757
1 -15.7543 -15.5158 -62.5155
2 -12.3661 -16.1729 -62.3504
1 -12.4472 -14.3969 -62.5493
2 -12.4491 -13.7806 -60.7628
1 -20.8477 -12.3211 -60.2638
2 -21.7325 -11.4283 -61.7904
1 -21.1441 -9.69212 -62.477
1 -15.9592 -12.6912 -62.8191
1 -18.4532 -10.9059 -61.982
2 -16.549 -11.2179 -61.779
1 -13.2105 -9.61224 -62.5399
2 -12.0173 -10.7654 -61.629
1 -12.3913 -11.9112 -60.1405
2 -21.969 -8.13737 -61.8807
2 -17.6733 -7.78133 -62.7777
2 -14.3654 -8.95538 -61.0793
1 -13.6623 -7.51373 -59.9415
2 -17.1078 -8.9995 -60.0349
2 -14.8925 -6.12745 -62.9763
2 -11.9216 -7.12829 -60.7677
2 -18.8426 -20.8272 -58.7275
1 -19.3536 -20.5855 -56.9418
2 24.4804 -14.0361 -61.9786
1 -17.2342 -19.629 -58.6857
2 -16.2583 -21.2488 -59.2115
2 -15.36 -19.2118 -58.1101
1 -14.5263 -20.3888 -59.4413
2 -13.2191 -21.0422 -58.1614
1 -11.5227 -20.3623 -58.0562
2 -8.93855 22.5415 -56.4987
2 -20.8392 -19.4384 -57.411
1 24.9035 -19.6806 -58.0102
2 -17.3848 -18.2543 -60.0105
1 -16.6127 -16.5708 -59.728
1 -17.4478 -17.6781 -55.9678
2 -14.7109 -18.8782 -60.5911
1 -11.6069 -17.1876 -58.3107
2 -12.9258 -16.4121 -59.2966
2 25.1514 -14.5209 -58.0242
1 -21.1917 -15.4655 -59.2206
2 24.9732 -12.1532 -59.375
2 -17.6908 -14.9559 -59.6474
1 -18.6623 -15.1564 -58.0447
1 -14.4128 -13.8379 -60.3037
2 -15.1417 -13.9681 -58.5497
1 -13.6967 -15.1809 -57.8456
2 -11.9336 -14.4316 -57.7278
2 -20.1116 -11.2356 -58.7383
2 -18.9364 -8.68708 -57.8517
2 -15.5291 -10.297 -58.5669
2 -14.3566 -11.9613 -60.0991
1 -15.5299 -12.1754 -58.1149
2 -11.4887 -11.151 -58.6283
1 -20.1227 -9.47617 -59.105
2 -21.9057 -9.06678 -59.2427
1 -18.321 -8.16251 -61.1209
2 -19.5356 -9.63641 -61.2503
1 -16.7793 -9.00147 -58.0719
2 -16.8102 -7.13159 -58.106
1 -15.6397 -10.198 -60.4765
2 -13.4101 -8.24916 -58.256
1 -11.9291 -9.47726 -57.8088
2 -10.5599 -8.19636 -58.2399
2 -19.2651 -20.7976 -54.9071
1 -22.0983 -22.2102 -55.7609
1 -14.4308 -18.6747 -56.628
2 -13.7019 -19.5928 -55.1835
2 -17.9989 -19.1879 -57.0872
1 -20.3641 -17.7052 -56.8939
2 -15.6701 -18.0962 -55.3208
2 -13.023 -17.3745 -56.8304
2 -19.5544 -14.0103 -56.9526
2 -17.4523 -15.9284 -56.5824
2 -13.941 -14.9721 -55.8108
2 -17.3846 -12.0617 -57.5952
2 -14.4605 -11.8514 -56.4837
1 -13.669 -7.19438 -56.7122
2 -12.2899 -9.77128 -55.9792
2 -20.4555 -3.96358 -64.9165
1 -21.8316 -3.75283 -63.2105
2 -18.0581 -5.39336 -64.4119
1 -20.0618 -5.82946 -64.7774
1 -17.6275 -3.62421 -64.7253
1 -16.8223 -6.17373 -63.2051
2 -15.8939 -3.70947 -65.1881
1 -12.1503 -3.73236 -63.2846
2 -12.181 -5.41618 -64.3981
2 -18.3317 -2.29044 -65.7775
1 -20.0254 -2.75079 -66.2505
1 -19.2338 -1.32053 -63.1621
2 -17.7647 -2.54446 -63.0796
2 -13.765 -2.62813 -63.4783
1 -14.7371 -2.13702 -65.1318
2 -14.1854 -2.3466 -15.1753
2 -11.0656 -2.09995 -63.4289
1 25.0691 2.2482 -65.1457
2 -19.0062 -0.0571016 -64.4835
1 -17.6796 -0.375477 -65.8992
2 -15.6337 -0.461673 -65.6374
2 -12.6816 0.195037 -64.1394
2 -21.4444 -5.56904 -63.0563
1 -20.3715 -5.73966 -61.2789
2 -19.7447 -4.0583 -61.667
2 -16.8521 -5.11113 -61.6252
1 -14.789 -4.85453 -61.5395
2 -14.8461 -6.00333 -59.9118
2 -12.8617 -4.44143 -61.6374
1 -11.3919 -5.21821 -60.805
2 -21.08 -1.74013 -63.4752
2 -22.1695 -2.01151 -59.3765
1 -20.8297 -2.7216 -60.5444
2 -19.7047 -1.23142 -61.2778
1 -17.8846 -3.56548 -61.4126
2 -17.7685 -2.75682 -59.7547
2 -15.355 -3.02245 -61.2542
1 -14.2275 -1.67704 -61.905
2 -12.473 -1.27876 -61.2191
1 -11.4286 -2.14377 -59.9064
2 -20.3626 1.33157 -60.0647
1 -19.0693 -0.173454 -59.8037
2 -17.3456 0.187974 -59.6913
1 -15.652 0.758072 -60.2248
2 -14.9332 0.0608699 -62.01
1 -11.4404 -0.267265 -62.6779
2 -21.7202 -6.02402 -59.9998
1 -21.4994 -4.96748 -58.4195
2 -20.421 -6.20818 -57.4519
2 -20.2124 -3.86225 -59.1524
2 -19.1067 -6.71786 -60.1648
1 -18.6879 -6.5924 -58.3077
2 -17.8208 -4.87085 -58.035
1 -16.0023 -5.36558 -58.4343
2 -14.7695 -5.59466 -56.8498
1 -13.2938 -3.99525 -57.926
2 -12.0832 -5.2307 -58.8202
1 -10.695 -6.134 -57.7768
2 -20.2968 -3.59591 -56.5868
2 -19.4059 -1.30713 -58.3036
1 -18.793 -3.09343 -57.9762
2 -17.6013 -2.01955 -56.6409
1 -15.8979 -2.40385 -59.4838
2 -15.1137 -3.60126 -58.3077
2 -14.8729 -0.798672 -59.4642
2 -12.6593 -2.35646 -58.5891
1 25.1341 -0.31976 -58.9722
1 -18.5854 -0.237543 -57.0442
2 -16.9073 0.698544 -56.6356
1 -13.439 -0.72141 -58.2485
2 -12.2725 0.711566 -58.4313
2 -12.0224 -6.44555 -56.2713
2 -14.313 -1.18632 -56.6428
2 -12.6796 -3.64069 -56.2452
1 -15.4277 0.1378 -55.837
2 -21.3085 24.9553 -54.1064
1 -17.5055 -20.4429 -52.2111
2 -15.9637 -20.4208 -53.3885
1 -12.3411 -20.8602 -54.9895
2 -10.812 -20.5714 -56.3706
2 -19.2042 -17.712 -55.3064
1 -14.7822 -18.8835 -53.7587
2 -13.3992 -17.3328 -53.6385
1 -12.9165 -16.3351 -55.0875
1 -22.2605 -14.7481 -56.2649
2 -21.1606 -16.3168 -56.0325
1 -17.3421 -14.8612 -54.8873
2 -18.9306 -14.5754 -53.7776
2 -16.5407 -13.287 -55.3121
1 -14.6217 -13.236 -55.116
1 -11.3914 -13.8026 -56.1442
2 -11.1949 -15.3536 -54.6871
2 -21.1308 -8.52099 -54.9849
1 -19.3375 -12.3153 -57.3259
2 -19.3794 -11.201 -55.7926
1 -17.4124 -11.4931 -55.59
2 -16.6878 -9.80743 -56.1115
1 -14.3989 -10.0876 -55.7943
2 -13.869 -10.4495 -53.9745
2 -12.5933 -12.8456 -54.7511
1 -19.6389 -9.29316 -56.046
1 -20.5908 -5.29971 -55.8172
1 -16.6239 -8.18744 -55.051
2 -14.8643 -8.27319 -55.7796
1 -10.9109 -8.58583 -55.0089
2 -11.7704 -7.62177 -53.7968
2 -21.8466 -21.5713 -51.2982
1 25.0143 -20.7951 -52.8058
1 -21.1699 -20.6271 -49.9555
2 -21.492 -19.4952 -53.501
2 -18.1541 -18.7067 -52.9744
2 -16.6893 -22.1432 -51.8119
2 -18.6774 -20.957 -50.6835
1 -14.9562 -21.6672 -52.4583
2 -13.5601 -20.1264 -52.6606
1 -12.59 -20.4537 -51.1786
2 -20.5217 -16.8893 -53.245
1 -22.2783 -17.8415 -52.9927
1 -19.6924 -19.098 -54.0443
2 -16.4866 -16.0437 -53.8351
2 -18.2714 -16.6569 -51.1873
1 -16.992 -17.1573 -52.5284
1 -17.4688 -16.3199 -49.4909
1 -20.1141 -16.1567 -51.5507
2 -15.4074 -18.1431 -51.957
2 -13.4118 -16.9507 -50.3187
1 -12.8022 -16.5635 -52.0659
2 -11.4915 -18.8298 -51.38
1 -20.2809 -15.5784 -54.5639
2 -20.1634 -14.346 -51.2234
1 -19.2912 -13.1098 -52.6907
2 -17.8573 -12.7496 -51.3346
2 -15.2468 -12.7157 -53.081
2 -13.4078 -14.7378 -52.4351
1 -12.1343 -11.1294 -54.0252
2 -21.2592 -13.9345 -54.8606
1 24.9951 -9.49281 -54.3338
2 -20.6976 -11.8297 -52.8157
1 -20.5585 -10.3985 -51.5502
2 -22.2583 -9.7984 -52.3673
2 -17.9629 -11.8253 -53.7184
1 -16.6694 -11.6771 -52.4274
2 -16.2525 -10.2559 -51.2939
1 -14.5736 -9.38337 -52.6533
2 -11.2299 -12.348 -52.477
2 -21.0805 -6.85165 -52.2958
1 -19.9817 -7.8088 -53.5973
1 -21.2754 -7.39037 -50.573
2 -16.9087 -7.2521 -50.5674
2 -18.4873 -8.32458 -54.9919
2 -19.2055 -9.02876 -52.3468
1 -17.3589 -8.56045 -51.774
2 -16.1298 -8.51249 -53.2199
2 -13.1642 -9.11895 -51.6397
1 -11.8959 -7.41832 -52.0031
2 24.9049 -19.4967 -49.2128
1 -18.2656 -20.273 -48.7715
2 -20.0351 -19.4646 -49.0595
2 -17.06 -19.4793 -47.5354
2 -18.8137 -21.5756 -47.4663
2 -14.0889 -21.7 -50.737
2 -13.427 -19.483 -49.4619
2 -11.0893 -21.4676 -50.9209
2 -12.6879 -22.0946 -48.3751
2 -21.6861 -17.0398 -47.4433
2 -21.4114 -16.8209 -50.2445
1 -20.5014 -17.6546 -48.729
2 -18.6595 -16.9323 -48.0083
1 -17.1284 -17.6978 -47.1813
1 -15.0319 -18.5814 -50.1986
2 -15.8965 -17.3595 -48.9427
1 -14.7036 -15.8093 -49.2297
2 -13.6366 -14.6445 -48.3267
1 -11.9246 -18.1173 -49.6966
1 -20.1974 -13.3696 -49.5777
2 -21.4545 -13.7136 -48.1356
2 -18.5394 -14.2686 -48.7627
1 -17.0752 -13.3492 -49.6496
1 -14.9069 -13.8481 -51.7454
2 -16.124 -14.9766 -50.1807
2 -11.9224 -13.4594 -49.9265
1 -13.5499 -12.5619 -49.1267
2 -14.934 -12.5621 -50.3769
2 -20.0263 -11.4772 -49.8203
2 -18.5394 -10.0115 -47.2347
1 -17.542 -11.5488 -46.7941
2 -16.5362 -12.0203 -48.3477
1 -15.776 -10.6809 -49.4859
2 -13.9418 -10.5772 -49.054
1 -12.1049 -10.6276 -47.2406
2 -11.294 -10.6065 -49.0416
1 -19.806 -9.80117 -48.5574
2 -20.8141 -9.09111 -50.0963
1 -21.1756 -6.82793 -47.6344
2 -16.5045 -9.10738 -48.7028
1 -19.3665 -4.92215 -48.5604
1 -15.6227 -7.36471 -49.0666
2 -13.6283 -7.78286 -48.9233
1 -12.7247 -9.35092 -49.8111
2 -11.0669 -8.32403 -50.4526
2 -19.8817 -19.8264 -45.2678
1 -18.7485 -21.2824 -45.6512
1 -15.8218 -20.7531 -46.5353
2 -14.1573 -19.7398 -46.615
2 -15.5726 -21.7247 -47.9683
1 -12.5898 -20.2791 -47.5662
2 -11.5162 -21.2657 -46.1073
1 -21.9188 -15.9669 -45.7427
2 -15.6787 -16.8373 -46.1412
2 -20.2885 -14.7768 -46.01
1 -21.2588 -12.8646 -46.3687
2 -17.6936 -14.8664 -45.539
1 -18.8517 -15.1653 -47.1472
1 -12.701 -13.4695 -45.9692
2 -11.2748 -14.42 -46.9004
2 -18.0914 -12.018 -44.9549
2 -13.0819 -12.2304 -47.3379
2 -21.0268 -8.77537 -47.2106
1 -16.9153 -8.84557 -46.9018
1 -13.6089 -7.73182 -46.9929
2 -15.6107 -7.1857 -47.1022
2 -13.0701 -9.42537 -46.2397
2 -19.6684 -5.8315 -54.2609
1 -17.896 -5.08951 -53.7698
2 -16.7789 -6.20881 -54.7833
1 -15.3128 -5.15828 -55.0588
2 -13.7738 -5.77924 -54.1856
1 -12.2355 -4.87665 -54.8897
2 -10.4166 -5.08005 -54.2778
2 -21.3155 -3.19327 -53.7833
1 -20.7986 -2.22739 -55.4008
2 -18.1808 -3.30182 -54.0736
1 -17.0025 -2.25468 -54.8938
2 -15.3942 -3.25822 -54.9141
1 -13.704 -2.30739 -55.2605
2 -12.7326 -1.02802 -54.3113
2 -12.7435 -3.5007 -53.5147
2 -19.6193 -0.755283 -55.4952
1 -20.023 0.411934 -54.1853
2 -16.0397 -0.624818 -54.2202
1 -12.708 0.852638 -54.444
2 -20.9536 -3.96815 -51.4328
1 -21.3335 -5.06106 -53.0798
1 -16.6984 -5.37254 -50.9746
2 -18.3114 -5.09514 -51.9937
2 -17.795 -4.39654 -49.5573
1 -19.1089 -3.60181 -50.885
2 -13.4357 -6.43826 -51.5183
2 -15.7534 -4.68986 -52.4218
1 -13.8857 -4.73548 -52.507
2 -13.2777 -3.97349 -50.6727
2 -10.8446 -5.87309 -51.2852
2 -19.2963 -1.85236 -51.481
1 -21.4318 -2.10385 -52.1818
2 -12.6604 -1.36781 -51.3522
2 -10.2721 -2.92303 -52.1399
1 -11.6698 -1.91893 -52.8631
2 -10.558 -0.282882 -53.1901
2 -20.8385 -0.346664 -52.7373
1 -19.0987 -0.00163481 -51.4796
2 -20.1054 1.04317 -50.3672
2 -18.514 0.901204 -53.1606
2 -17.2048 -0.279124 -51.2732
1 -16.3716 0.65039 -52.7083
2 -15.0054 0.904469 -51.3322
1 -13.1351 0.427149 -51.2199
2 -20.7658 -5.98108 -49.4137
1 -22.2872 -4.75777 -50.232
2 -20.1755 -3.32634 -49.0176
1 -16.5409 -3.2663 -48.5934
1 -13.4317 -5.63421 -49.7853
2 -15.3264 -5.50459 -49.408
1 -10.3028 -5.34696 -49.5141
2 -12.0556 -5.4743 -48.5446
2 -20.941 -0.645069 -47.7915
1 -19.6092 -1.86159 -47.8395
2 -17.7338 -1.80524 -48.2867
1 -15.8386 -0.181631 -49.9535
2 -15.3986 -2.19495 -49.5619
1 -13.5048 -2.31517 -49.8402
1 -10.5563 -1.53082 -48.4722
2 -12.2566 -2.4068 -48.3528
2 -16.1535 0.528742 -48.206
2 -13.7264 -0.270778 -49.3906
1 -12.92 0.609897 -47.9653
2 -11.4467 1.15734 -50.7046
2 -11.1971 0.190047 -47.6064
2 -19.6461 -5.87048 -46.9514
1 -16.7497 -5.87722 -46.154
2 -16.4928 -4.08139 -46.9419
2 -12.8395 -6.51162 -45.8446
2 -13.4509 -3.4974 -46.017
1 -15.3626 -3.28513 -45.5399
2 -10.6649 -4.61176 -46.3325
1 -12.2039 -4.01157 -47.3294
1 -21.3673 0.0156579 -46.1565
2 -19.3594 -2.82824 -46.2198
2 -15.6549 -1.39465 -46.1213
1 -17.0952 -0.538799 -46.9572
2 -21.7613 2.02381 -45.7359
2 -18.662 0.262897 -46.5544
2 -13.8998 1.08391 -46.352
1 -15.3822 2.01587 -47.3319
1 -21.5706 -19.9905 -44.4973
2 -16.8816 -20.6096 -45.1142
2 -10.6839 -21.9076 -43.502
2 -21.7182 -15.8618 -43.8753
1 -14.1978 -18.0273 -45.9901
1 -18.9379 -18.8071 -43.642
2 -12.3948 -17.4236 -45.5809
1 -19.2232 -13.7091 -44.6683
1 -15.8771 -15.166 -45.25
2 -14.3904 -14.0269 -45.2122
1 -11.2423 -15.9317 -45.7142
2 -12.1744 -12.8634 -44.1552
1 -19.4946 -10.8949 -44.1816
2 -16.1728 -10.3154 -45.9453
1 -20.9793 -8.29753 -45.3584
2 -19.616 -9.1151 -44.0532
2 -17.5987 -7.64058 -45.6329
2 -14.2877 -8.03001 -44.0469
2 -21.2162 -21.3633 -43.335
1 -20.2011 -20.9562 -41.7227
2 -18.5221 -20.4176 -42.7464
2 -22.2424 -20.6924 -40.7358
1 -17.1558 -21.5335 -43.317
2 -16.0377 -20.1473 -42.0011
2 -15.6467 25.0866 -43.1888
1 -11.9299 -21.2019 -42.3466
2 -12.8706 -19.7632 -42.9707
1 -22.3102 -17.3972 -42.9544
2 -20.6725 -18.648 -42.9796
2 -21.2954 -16.6526 -41.3899
2 -18.2028 -17.5032 -42.302
1 -16.4288 -18.3509 -41.649
2 -14.7743 -17.468 -41.949
1 -13.2911 -18.5258 -41.3924
1 -11.8425 -18.5224 -43.9871
2 -11.9137 -17.3127 -42.5427
2 24.8136 -13.8246 -42.4191
1 -21.1749 -15.0074 -42.209
2 -19.3374 -14.5187 -42.9336
2 -16.171 -15.3712 -43.4391
1 -17.8845 -15.5548 -42.6478
1 -15.1178 -15.5566 -41.8791
2 -13.7231 -14.1879 -42.0749
2 -20.6812 -12.2971 -44.5966
2 -22.3991 -8.60074 -43.9165
1 -20.5574 -9.19184 -39.8105
2 -19.1399 -11.2976 -42.3668
1 -16.1587 -10.8746 -44.1884
1 -14.0777 -12.942 -43.595
2 -15.6421 -12.1188 -42.6887
2 -14.28 -11.1338 -44.4462
1 -14.8455 -11.0073 -41.3389
1 -10.7947 -12.7071 -42.8547
1 -21.577 -7.19268 -42.7542
2 -17.1109 -9.71023 -43.1116
1 -18.0184 -8.16714 -43.8551
2 -17.6379 -6.92554 -42.5916
1 -13.2636 -9.5331 -44.1577
2 -13.5628 -9.79303 -41.9545
2 -11.476 -9.42613 -43.7036
2 -11.3024 -7.70084 -41.5972
2 -19.7869 -19.6156 -40.4017
1 -21.6193 -20.3637 -39.0071
2 -20.3437 -21.333 -38.1138
2 -16.8855 -20.9498 -39.1153
1 -17.357 25.0193 -37.9003
1 -15.5781 -21.125 -40.5694
2 -13.8706 -20.2253 -40.3697
2 -15.2932 24.6615 -40.2164
1 -12.4576 -20.8864 -39.2833
2 -11.2044 -20.4449 -40.7191
2 -11.9226 -19.7099 -37.8873
2 -19.6542 -17.1176 -39.4512
1 -19.7805 -17.9181 -41.1608
2 -16.8405 -18.1282 -39.9373
1 -16.9064 -19.1611 -38.4622
2 -12.6884 -17.7659 -39.7418
1 -11.177 -18.3528 -38.974
2 -20.6498 -14.046 -40.6253
1 -19.9149 -15.3577 -39.3615
2 -21.2838 -15.4638 -38.0634
2 -16.8359 -15.3127 -41.0559
2 -18.2104 -14.8498 -38.7496
1 -16.4152 -15.3898 -39.2055
2 -16.2255 -13.4676 -38.821
1 -13.166 -16.1108 -39.1098
2 -14.6467 -15.6812 -40.0052
1 -12.6429 -13.4231 -40.701
2 -11.897 -14.8523 -39.5644
1 -10.4081 -14.9803 -38.2674
1 -19.8847 -12.3155 -40.9203
2 -20.9043 -11.0586 -39.6839
1 -17.8958 -10.3807 -41.3832
2 -18.2494 -12.0579 -40.0971
1 -18.1048 -12.9659 -38.45
2 -16.2652 -10.1914 -40.4998
2 -13.9122 -12.0213 -40.0116
1 -14.8187 -12.4589 -38.3838
2 -11.6259 -11.9198 -41.3015
1 -10.8016 -10.6176 -40.1766
2 24.9597 -5.74356 -42.379
2 -20.3626 -8.1781 -37.7999
1 -21.6571 -8.96826 -36.6439
2 -18.8266 -8.82179 -40.4716
1 -18.4653 -6.94411 -40.8978
2 -16.6083 -7.0291 -40.125
1 -16.1865 -8.65982 -39.37
1 -12.9625 -8.35477 -40.77
2 -14.3516 -8.56413 -39.4952
2 -11.8119 -9.0891 -39.2675
1 -10.7035 -7.68764 -38.2571
1 -18.8096 -19.9015 -35.7025
2 -22.2699 -21.4892 -35.5875
2 -17.8128 -21.4242 -36.3894
2 -15.1866 -22.0545 -37.0198
1 -15.8936 -20.6252 -36.0436
2 -12.5677 -20.7554 -34.9365
2 -20.561 -19.1659 -36.0133
1 -20.0443 -18.0768 -37.6287
2 -18.392 -18.9491 -37.342
2 -15.4076 -19.0078 -37.2297
1 -14.9256 -17.275 -36.5943
1 -12.3028 -19.394 -36.0619
2 -10.5261 -16.8943 -37.9208
2 -10.7617 -18.5022 -35.4937
2 -19.4056 -16.5347 -36.714
1 -20.2279 -14.6889 -36.6193
2 -16.3973 -16.4893 -37.7171
1 -17.5983 -16.1891 -36.3686
2 -13.6974 -16.0215 -37.3113
1 -13.1558 -14.5597 -36.3581
2 -11.3647 -14.2966 -36.7331
2 -20.0212 -13.1545 -37.8658
1 -21.4827 -12.019 -38.1044
2 -17.4409 -12.0718 -36.8981
1 -18.0079 -12.9218 -35.2684
1 -16.7307 -10.339 -36.5598
2 -14.2087 -13.0577 -36.6232
2 -15.1104 -10.6503 -37.776
1 -13.87 -11.4025 -35.8802
2 -12.6009 -10.7404 -37.145
2 -11.0828 -11.6744 -35.3327
1 -10.6076 -10.5868 -36.9243
2 -21.7049 -10.9533 -36.5126
1 -18.6482 -8.43583 -36.7267
2 -17.2416 -9.0246 -37.8859
2 -18.2907 -9.77555 -35.4951
1 -13.5807 -9.4168 -37.9817
2 -13.895 -7.90246 -36.8554
2 -10.6312 -8.65171 -36.6862
1 -19.821 -5.18383 -45.1829
2 -20.9845 -6.61219 -44.6507
2 -18.0183 -5.35412 -44.7647
2 -15.4081 -5.25998 -45.0149
1 -12.8307 -3.2753 -44.1928
1 -11.0161 -6.37083 -45.5576
2 -20.7674 -0.71391 -44.6294
1 -19.6931 -2.20524 -44.5405
1 -14.3174 -0.211788 -44.8472
2 -20.3319 -3.87714 -44.0003
1 -20.2253 -4.50175 -42.2357
2 -20.1241 -6.33846 -41.8887
2 -18.3635 -4.24442 -41.8983
1 -17.0718 -5.05166 -43.1098
2 -15.42 -5.70567 -42.4744
1 -14.1894 -6.20448 -44.0687
2 -12.8224 -5.14734 -43.5016
1 -11.749 -5.97558 -42.2317
2 -21.327 -3.12584 -41.5301
2 -16.5882 -3.23154 -43.9986
2 -18.4047 -1.36625 -43.3364
1 -16.4607 -1.6072 -43.3031
2 -16.128 -1.41615 -41.4462
2 -14.3299 -1.96744 -43.9741
2 -13.0967 -0.984849 -41.1243
2 -11.4946 -2.5618 -43.2239
1 -11.9843 -2.39201 -41.4935
2 -20.511 -0.0545016 -41.7257
1 -21.709 1.57531 -41.7328
2 -16.0102 0.209162 -43.8195
1 -19.0792 0.241781 -42.7323
2 -17.9399 1.23355 -41.3412
2 -12.9949 0.843212 -43.8856
1 -12.6765 0.602907 -42.0113
2 -10.5982 0.669547 -41.8353
2 -19.0189 -5.63979 -39.4651
1 -18.0644 -3.95226 -39.9992
2 -16.085 -4.07755 -40.349
1 -15.2041 -5.82064 -40.6118
1 -15.7106 -3.85181 -38.1722
2 -13.3819 -6.43741 -40.9659
2 -14.3297 -5.28415 -38.8208
1 -12.5593 -4.96065 -39.6687
2 -13.3785 -3.61295 -40.9943
2 -11.0033 -4.92155 -40.853
2 -11.9381 -6.19771 -38.2527
2 -21.5364 -1.214 -39.0924
1 -20.4805 -1.56621 -40.6682
2 -17.4492 -3.34965 -38.3053
2 -18.8126 -2.06305 -39.9554
1 -18.1364 -1.50584 -38.1854
1 -14.8158 -2.41815 -40.5634
2 -14.5748 -2.36838 -38.7
2 -11.8824 -3.53383 -38.5091
1 -16.3745 0.270302 -40.7828
2 -16.717 -0.26226 -39.0728
1 -16.2488 1.16785 -38.1277
2 -14.7515 1.148 -41.0313
2 -11.8886 -0.357407 -38.5114
1 -19.8953 -6.06638 -37.8236
2 -20.8569 -4.71135 -37.116
2 -15.7314 -5.08074 -36.6579
2 -18.5692 -6.59103 -36.4701
1 -14.0567 -6.0962 -37.1811
2 -12.97 -5.2101 -36.0085
1 -11.3869 -4.79462 -37.0174
1 -20.646 -0.529053 -37.4928
2 -19.5575 -1.9369 -36.8542
2 -16.707 -1.48526 -36.7641
1 -12.7425 -1.97407 -38.0263
2 -13.3848 -1.58322 -36.3114
1 -15.1156 -0.823236 -36.0206
2 -11.1636 -3.2577 -35.8208
2 -18.9914 0.259257 -38.0722
2 -14.6542 0.541328 -37.3291
1 -12.8533 0.94905 -37.5214
2 -12.2016 1.19517 -35.8471
2 -9.94919 -20.6509 -33.7407
2 -16.2291 -16.5556 -35.2102
2 -13.4505 -17.9424 -35.5493
1 -10.3374 -13.3735 -35.4538
2 -15.0959 -10.073 -35.2283
1 -14.3098 -8.27476 -35.0545
2 -16.0926 -7.39641 -35.1595
2 -21.6741 -20.108 -33.1465
1 -19.8875 -19.9391 -32.6242
2 -19.4823 -21.0623 -34.31
2 -15.6856 -21.5378 -34.3334
2 -16.976 -19.3719 -34.9583
2 -17.757 -19.6447 -32.0895
1 -16.4613 -20.1972 -33.2889
2 -14.6189 -20.0444 -32.617
1 -13.7914 -21.551 -31.8853
1 -11.3815 -21.9954 -34.3453
2 -11.8002 -18.83 -32.3117
2 -20.3355 -18.0769 -32.2367
1 -22.1117 -17.473 -32.8277
2 -17.3125 -16.9933 -32.2872
2 -14.4724 -17.1641 -32.9929
1 -13.0304 -16.7449 -34.1301
2 -11.4197 -16.5775 -33.411
2 -21.6811 -14.8582 -35.4859
2 -19.5619 -15.045 -33.0475
1 -21.1366 -14.4406 -33.794
2 -21.9154 -12.6252 -33.376
2 -18.3091 -14.5568 -35.9382
1 -16.0343 -16.276 -33.3274
2 -18.5341 -11.9529 -32.1448
2 -15.8599 -14.3447 -33.1153
2 -13.3668 -14.9911 -34.6106
1 -13.8802 -13.6688 -33.4085
2 -12.7048 -13.8917 -31.8693
2 -10.4172 -14.051 -33.6929
1 -10.9499 -13.0787 -32.0893
2 25.0859 -8.84915 -34.9791
1 -21.1339 -11.5475 -34.8395
2 -19.8228 -12.8534 -35.0105
1 -16.8133 -12.7943 -32.4319
2 -17.1311 -11.8257 -34.1478
2 -15.1458 -11.8265 -32.1101
2 -13.4775 -11.9317 -34.0926
1 -11.7875 -10.7323 -33.8376
2 -11.0844 -11.1549 -32.178
1 -21.9484 -9.25566 -33.1152
2 -21.9757 -7.58808 -32.4857
1 -16.7946 -7.66357 -33.4098
2 -20.4302 -10.2784 -33.6408
1 -18.4492 -10.436 -33.4615
2 -16.9609 -9.39723 -32.9297
2 -13.8315 -6.9548 -33.8444
2 -12.5496 -9.18298 -34.6287
1 -10.9729 -8.16021 -34.9025
2 -11.1149 -8.03655 -32.1602
2 -20.4831 -21.6568 -28.2988
2 -19.9422 -21.1065 -31.139
1 -21.203 -20.8624 -29.7252
2 -21.5636 -19.051 -29.5239
2 -17.1887 -19.9707 -29.507
1 -17.0835 -21.5755 -30.4254
1 -13.2197 -21.3524 -28.9765
2 -13.2369 -20.2807 -30.6323
2 -16.1136 25.1627 -28.9859
2 -20.8315 -15.8861 -30.6837
1 -20.6984 -17.6079 -29.9855
2 -18.7665 -17.4523 -30.2297
1 -18.9829 -16.0133 -31.5824
1 -17.2822 -18.3231 -30.7537
1 -14.7207 -16.7917 -29.5448
2 -15.4187 -18.1667 -30.6149
1 -13.7619 -18.7159 -31.6749
2 -13.1245 -17.0805 -30.7471
1 -12.0407 -16.6878 -28.5722
1 -11.4367 -17.1072 -31.4303
2 -10.8852 -17.7104 -29.4878
1 -21.8543 -12.4427 -31.4564
2 24.453 -13.6737 -30.6601
2 -18.3032 -14.6617 -30.298
1 -20.8733 -14.564 -29.1496
2 -16.807 -12.6361 -30.2233
1 -18.7311 -12.7053 -30.3584
2 -14.8932 -14.9004 -29.8492
1 -13.3092 -13.9358 -30.085
2 -11.9106 -14.8868 -29.4011
2 -20.579 -13.1082 -30.2894
2 -21.6326 -10.6064 -31.169
1 -20.9509 -10.6328 -29.4393
2 -19.1055 -11.2332 -29.1558
2 -16.0735 -9.92215 -29.5388
1 -15.2485 -11.4832 -30.2184
2 -13.5532 -12.0626 -29.5636
2 -10.4907 -12.6275 -29.0685
1 -21.941 -6.28041 -31.2259
2 24.4372 -9.44153 -28.8844
2 -18.1696 -8.10713 -30.1494
1 -18.2193 -9.64157 -29.0031
1 -15.0218 -10.2602 -33.1223
1 -13.0439 -7.54892 -31.9298
2 -14.0156 -9.13203 -32.126
2 -15.8711 -6.9476 -31.7095
2 -12.8148 -7.42334 -30.0372
1 -10.9972 -7.82378 -29.5273
2 -21.0275 -18.9804 -26.3058
2 24.2157 -21.0367 -27.5346
2 -17.5447 -20.834 -26.6804
1 -16.1813 -20.5053 -27.843
2 -12.6388 -21.8108 -25.6449
2 -14.2536 -20.2942 -27.8112
1 -11.3255 -21.1516 -26.7678
1 -20.2786 -17.4403 -26.7193
2 -21.3367 -16.6657 -28.1925
2 -20.1647 -16.0356 -25.5255
2 -18.6206 -17.9519 -27.2683
1 -16.9029 -17.2419 -27.1741
2 -16.5264 -16.5524 -28.876
2 -15.8148 -18.7147 -26.9059
1 -13.8534 -18.7075 -26.5892
2 -13.6637 -17.3277 -28.0059
2 -11.7141 -19.257 -26.455
1 -11.8905 -16.1284 -25.2879
1 -19.6879 -14.4361 -26.2034
2 -19.4318 -14.2706 -27.9643
2 -16.3563 -13.613 -27.6929
1 -16.7123 -14.5271 -29.309
2 -12.7344 -13.0533 -27.1449
2 -11.4317 -15.8452 -27.074
1 -11.0986 -14.0466 -27.7692
2 -19.3443 -11.1438 -26.2617
1 -21.092 -11.5563 -26.3722
2 -21.8463 -11.4909 -28.0581
1 -18.6904 -9.30904 -25.9635
2 -17.5237 -9.09881 -27.3671
2 -14.387 -10.5255 -27.1293
1 -13.0369 -11.4025 -27.8819
2 -11.5792 -10.2378 -27.6717
1 -21.7889 -7.94474 -28.4089
2 24.9935 -7.5882 -26.7095
2 -20.368 -8.98685 -28.7441
2 -20.1227 -8.27528 -25.2188
1 -15.603 -9.02887 -27.6511
2 -15.2588 -7.48358 -28.7023
2 -15.0561 -8.31657 -26.0356
1 -14.8734 -6.4679 -26.1877
2 -10.6505 -7.42465 -27.6907
1 -10.55 -8.99636 -26.5835
2 -12.1644 -8.51434 -25.5647
2 -9.64141 -21.6352 -26.0731
1 -16.4146 -14.1662 -26.0156
1 -13.2181 -12.9982 -25.4076
1 -13.6212 -9.70005 -25.4699
1 -20.1021 -3.6003 -35.7863
1 -17.1507 -5.7482 -35.553
2 -18.1884 -3.9724 -35.4433
1 -17.3609 -2.43136 -35.2888
2 -19.4382 1.06614 -35.1231
2 -20.8114 -5.05762 -34.1715
1 -19.6835 -6.38155 -33.3213
2 -17.9234 -6.24048 -33.7394
2 -16.0231 -4.39761 -32.864
1 -12.8665 -5.37029 -34.0658
2 -10.9776 -6.30653 -34.3407
1 -10.4873 -6.20634 -32.2289
2 -12.4613 -5.66565 -32.1177
2 -21.6856 -0.455773 -35.867
2 -20.7933 -2.50339 -34.2802
1 -20.1755 -0.636085 -34.4846
2 -18.3152 -1.07159 -34.2182
1 -18.1614 -1.42723 -32.491
2 -13.0531 -3.59953 -33.6757
2 -16.2006 -1.24822 -32.2279
2 -15.5221 -2.31595 -34.6767
1 -15.0582 -2.84472 -32.9644
1 -12.4378 -2.10971 -34.6434
2 -10.8607 -1.11251 -34.3703
2 -20.7231 0.307934 -32.863
2 -13.538 -0.954787 -33.2549
2 -15.5338 0.422004 -34.7747
1 -15.2549 0.0246134 -33.0516
2 -10.6999 0.519144 -32.1819
1 -12.2672 -0.537935 -31.9269
1 -19.0539 -6.57129 -29.8758
2 -19.9641 -6.08038 -31.5184
1 -20.9318 -3.69877 -32.8373
2 -19.437 -6.23151 -28.0642
1 -16.2689 -8.0927 -30.2936
2 -17.8375 -5.06823 -30.3308
1 -18.6986 -3.43743 -30.261
1 -13.6746 -6.01498 -29.0944
2 -15.1272 -4.94421 -29.7485
2 -10.4105 -4.29254 -31.7131
2 -12.3145 -4.43011 -29.3903
1 -12.2673 -3.8629 -31.3759
2 -20.0773 -3.33659 -29.0085
2 -22.2125 -4.40047 -31.6378
1 -20.6946 -1.56783 -28.474
2 -21.4822 -0.387347 -29.6264
2 -19.1322 -3.06365 -31.9956
2 -16.946 -2.53675 -29.8625
2 -14.1093 -2.95993 -31.2482
1 -15.0749 -3.00768 -29.5207
2 -11.3715 -2.06274 -31.3305
1 -20.3572 0.480092 -30.9304
1 -17.4109 -0.66447 -29.3937
2 -18.6273 -0.371701 -30.9567
2 -16.1536 0.937136 -29.2548
2 -13.3531 0.493574 -30.4995
2 -10.552 0.76161 -29.1766
2 -20.9 -4.74658 -26.0547
2 -21.896 -6.49829 -29.4102
1 25.1282 -5.7376 -25.8054
2 -16.524 -5.60703 -26.3632
2 -18.3701 -3.46844 -26.6787
2 -13.2727 -6.08407 -27.2038
1 -11.2832 -5.73656 -26.7802
2 -11.7066 -3.6963 -26.4055
1 -19.6006 -4.5408 -27.4066
2 -21.4168 -1.54131 -26.8021
2 -18.6172 -0.398971 -25.3953
1 -17.6231 -1.89182 -26.3724
2 -16.51 -0.916702 -27.4327
1 -14.5187 -1.65468 -26.4239
2 -14.2496 -2.85864 -27.9026
2 -11.7339 -1.36145 -28.293
1 -12.3675 -3.09767 -28.1478
2 -20.924 1.19253 -26.937
1 -19.0491 0.726582 -26.9882
2 -18.979 -0.737121 -28.1746
2 -14.0774 -0.013069 -27.3521
2 -11.0212 0.558322 -25.3882
1 -12.5751 0.263031 -28.6172
2 -13.2177 -1.52854 -25.0342
1 -21.7228 -19.0377 -24.6752
2 -19.8928 -20.793 -24.3732
1 -18.5921 -21.6311 -25.4008
2 -17.5485 -18.7614 -24.1995
2 -17.2414 -21.7592 -24.0248
1 -16.245 -20.1031 -23.8859
2 -14.4763 -19.7207 -24.6339
1 -13.0081 -20.9262 -24.0325
2 -11.1471 -21.868 -23.3381
2 -12.1133 -19.3186 -23.4484
2 -21.087 -17.7959 -23.224
1 -21.3478 -16.0141 -23.9214
1 -18.9398 -18.6163 -22.9107
1 -16.8474 -16.8422 -24.0904
2 -18.5644 -16.6233 -23.3253
2 -16.5299 -16.0571 -25.7753
1 -13.7176 -18.0324 -23.5154
2 -13.4446 -17.1883 -25.2363
2 -15.4345 -17.6075 -22.8363
2 -12.6374 -16.8014 -22.4367
2 -21.5229 -14.5963 -22.7404
2 -21.223 -13.2717 -25.6617
1 -22.1813 -12.8781 -23.5298
2 -18.2034 -13.7067 -25.3431
2 -14.9361 -13.5324 -25.1023
1 -15.5272 -13.6466 -23.331
2 -13.903 -13.5707 -22.4036
2 -12.1784 -14.3867 -24.5218
1 -12.5435 -14.8872 -22.4997
2 -20.1943 -11.9598 -23.4767
2 -17.6381 -10.2642 -24.5428
1 -18.4684 -12.0578 -24.5833
2 -12.9418 -11.3154 -24.5796
1 -11.7603 -11.2314 -23.0898
2 -21.5917 -9.21965 -22.9468
1 -19.1637 -7.38742 -23.889
2 -22.3462 -6.67023 -24.2745
2 -17.3112 -7.45203 -24.2361
1 -16.3235 -9.0223 -23.966
2 -14.5162 -9.32765 -23.6431
2 -12.5889 -7.25775 -22.9405
2 -11.4731 -9.32522 -22.8021
1 -11.1087 -7.70924 -24.0069
1 -20.7306 -21.1776 -22.7362
2 24.9786 -19.4234 -20.644
2 -19.9958 -19.5966 -21.7586
1 25.0826 -21.2059 -19.9418
2 -16.4553 -20.1386 -22.0935
1 -17.6038 -21.7584 -21.7228
2 -14.0163 -21.4973 -22.6469
1 -12.9774 -21.3793 -21.0782
2 -11.3537 -20.2722 -21.1038
1 -21.2632 -18.0075 -21.0663
2 -22.0406 -16.4641 -20.7158
1 -16.3442 -18.3285 -21.1659
1 -17.9469 -15.5658 -21.85
2 -16.7235 -16.3105 -20.5553
2 -18.2909 -18.2307 -21.066
2 -14.2821 -16.5024 -19.6276
2 -13.4688 -18.9259 -20.6705
1 -11.8691 -18.2277 -21.1217
2 -11.481 -16.9487 -19.6109
1 -21.068 -14.7084 -20.6104
2 -20.6897 -12.7679 -20.485
2 -19.0913 -14.8023 -20.7057
1 -18.7771 -13.1584 -19.7273
2 -16.5722 -15.0886 -23.1803
1 -15.6695 -15.0376 -19.5648
2 -14.1399 -13.9331 -19.6835
1 -12.6976 -15.4282 -19.5131
2 -11.8861 -14.3656 -20.8518
1 -20.1293 -11.4532 -21.7197
2 -20.3533 -10.1447 -20.4472
2 -16.6517 -12.2303 -23.2613
2 -18.3676 -11.7676 -20.9678
1 -16.7213 -11.25 -21.7422
2 -13.1947 -10.9623 -21.8182
1 -13.7921 -12.431 -20.6907
2 -15.4642 -11.597 -20.4213
2 -10.7708 -12.1605 -21.8173
2 -19.3084 -8.02374 -22.1692
1 -20.9286 -8.55546 -21.2947
2 -21.1762 -7.00513 -20.1882
2 -16.7613 -9.42027 -21.9037
1 -17.7383 -8.04651 -21.0782
1 -13.2863 -9.10803 -22.1915
2 -13.572 -8.46182 -20.3775
2 -10.5664 -10.0997 -19.3105
2 -20.433 -18.5204 -19.3884
1 -21.8409 24.9848 -16.9328
2 -20.7179 23.4113 -17.5749
2 -17.5545 -21.249 -19.9336
1 -18.7717 -19.5141 -19.8147
2 -19.085 -20.0372 -17.9547
2 -16.0952 -21.3907 -17.5419
2 -14.2115 -21.3242 -19.7593
1 -15.8083 -20.7336 -19.2846
2 -11.6902 -20.223 -17.941
2 -21.5602 -17.9417 -16.7728
2 -18.8031 -15.3395 -16.3515
2 -15.8472 -18.8422 -19.3673
1 -14.0452 -18.2164 -19.0524
2 -13.6831 -18.3429 -17.2268
2 -15.6739 -15.5756 -17.5662
2 -11.0185 -17.1423 -16.9422
1 -11.5905 -18.9652 -16.6028
2 -20.6883 -15.3759 -18.686
1 -20.0048 -14.2039 -17.1831
2 -19.6967 -12.5366 -17.9994
2 -16.9622 -13.5579 -19.2034
1 -15.7414 -13.875 -16.1799
2 -17.2563 -12.7021 -15.8816
2 -12.2797 -14.7139 -17.8628
1 -11.9662 -15.6095 -16.217
2 -21.2223 -9.67803 -17.6682
1 -18.5151 -11.4374 -16.503
2 -17.6037 -10.7604 -18.1141
1 -16.082 -11.8125 -18.5475
2 -14.8574 -12.7 -17.3129
2 -15.0386 -10.2251 -18.2212
2 -12.708 -11.738 -19.2494
1 -13.1475 -13.0022 -17.9039
2 -11.5921 -12.5226 -16.8148
1 -21.6258 -7.94248 -16.8272
1 -20.7086 -11.0233 -18.873
2 24.3878 -7.2764 -17.8612
2 -15.0203 -7.75295 -16.4107
2 -16.1794 -8.15822 -19.0027
1 -17.6016 -8.82987 -18.1197
2 -12.7427 -6.43237 -18.119
1 -13.3695 -9.91318 -19.262
1 -11.5994 -8.26439 -17.0974
2 -12.847 -9.51879 -17.5057
2 -21.9512 -20.9896 -18.0983
2 -13.2252 24.5841 -16.9892