9160
 Atoms. Timestep: 4000
1 -21.0512 24.3657 -64.9294
2 23.9124 24.1528 -16.1863
2 -19.4974 24.9689 -65.82
1 -19.3876 -20.6451 -65.8435
1 -16.7943 -18.8177 -14.9954
2 -18.4402 -19.9303 -64.4189
2 -15.4607 -19.393 -65.0431
2 -11.6597 -18.4776 -63.7839
1 -12.1724 23.6541 -15.5733
2 -20.1342 -18.8091 -66.0328
2 -19.5471 -16.0829 -65.3179
1 -21.8882 -18.4009 -14.9771
1 -19.1363 -17.8839 -64.7329
2 -17.3599 -17.4043 -65.4022
1 -17.8202 -15.5909 -66.2064
1 -13.3781 -19.3693 -64.9059
2 -13.7973 -17.521 -64.6397
1 -12.1484 -16.6452 -64.141
1 -19.8341 -14.5512 -64.293
2 -21.1938 -13.3476 -64.3543
2 -18.304 -13.9508 -65.1982
1 -17.7665 -12.026 -65.4555
2 -15.2617 -15.5889 -64.2194
1 -14.3266 -14.8209 -65.7969
2 -12.7002 -14.6161 -64.7755
2 -14.3488 -13.169 -15.0456
1 -11.4565 -13.2114 -65.3558
2 -11.0385 -13.2401 -63.4177
1 -21.0453 -11.8301 -65.6578
2 -21.5234 -10.1279 -64.5698
2 -18.2765 -10.5404 -64.0564
2 -15.9076 -12.1503 -64.7431
1 -14.3015 -11.676 -65.5688
2 -14.62 -10.0626 -15.0455
2 -14.1744 -10.2583 -64.0302
1 -11.0536 -10.903 -15.3191
2 -12.3735 -11.6315 -65.6794
1 -21.824 -8.48092 -65.3742
2 -19.8635 -7.91124 -64.7997
2 -16.7813 -8.32135 -65.5976
1 -18.2932 -8.68784 -64.5592
1 -14.916 -8.93989 -65.0728
2 -14.0919 -7.3076 -65.484
1 -13.3476 -6.43246 -64.0327
2 -12.2067 -7.979 -63.5404
2 -21.693 -20.5399 -59.6679
1 -19.8166 -21.2387 -59.9951
2 -19.3871 -21.2005 -61.8187
1 -18.6243 -19.7419 -62.5485
2 -16.7188 -20.0875 -62.3342
1 -21.0578 -20.1921 -17.6502
2 -13.5587 -20.5349 -63.4337
2 -13.6441 -21.3873 -60.8062
1 -15.4535 -20.8758 -63.6277
1 -12.6155 -19.9414 -61.8391
2 -19.7213 -18.175 -62.9369
1 -20.997 -16.869 -62.3251
2 -19.6764 -16.5408 -58.2854
1 -15.6206 -17.4305 -64.2443
1 -15.9016 -18.708 -61.468
2 -16.443 -17.1508 -62.5026
1 -13.2099 -16.8717 -60.9425
2 -11.8558 -18.344 -60.7042
2 -22.1804 -16.4558 -63.8481
2 -20.2702 -13.9498 -60.1039
2 -19.2553 -12.559 -61.7807
2 -19.7018 -15.3825 -62.6189
1 -18.7099 -14.4214 -61.3305
2 -17.0987 -14.0548 -62.4135
2 -14.5124 -13.7049 -62.413
2 -14.8625 -15.7462 -60.5977
1 -15.7664 -15.3781 -62.333
2 -12.4444 -15.9168 -62.3974
1 -12.5612 -14.0267 -62.7593
2 -12.302 -13.4771 -60.7458
1 -20.8762 -12.3424 -60.6578
2 -22.004 -11.31 -61.9006
1 -21.2639 -9.77368 -62.7037
1 -15.8759 -12.5088 -62.8687
1 -18.3266 -11.0288 -62.1967
2 -16.4828 -11.0212 -61.7363
1 -13.0784 -9.48371 -62.7032
2 -11.9016 -10.6049 -61.8372
1 -12.1762 -11.6406 -60.3435
2 -21.8387 -8.12249 -62.3337
2 -17.7126 -7.75069 -62.9237
2 -14.3513 -8.82521 -61.3418
1 -13.6452 -7.47106 -60.1303
2 -17.0727 -8.938 -60.0922
2 -14.9319 -5.9328 -63.2124
2 -11.9078 -7.03674 -60.7549
2 -18.5076 -20.7821 -58.7804
1 -19.1864 -20.6209 -57.0477
2 24.1918 -14.1697 -62.2953
1 -16.6805 -19.7781 -58.5185
2 -15.7537 -21.4439 -58.9228
2 -14.7663 -19.1575 -58.1774
1 -14.0136 -20.5899 -59.1436
2 -12.6863 -21.2384 -57.9919
1 -10.8637 -20.5188 -57.4711
2 -9.14935 22.7984 -57.1026
2 -20.4978 -19.2441 -57.3163
1 -22.3104 -19.9026 -57.9398
2 -16.7912 -18.2581 -59.7551
1 -16.3103 -16.4701 -59.7013
1 -17.2382 -17.9181 -55.97
2 -14.1008 -18.5583 -61.2888
1 -11.5767 -17.6104 -58.4107
2 -12.7432 -16.2395 -59.1141
2 25.0429 -14.9454 -58.2577
1 -21.0233 -15.5491 -59.3325
2 24.8925 -12.2674 -59.5586
2 -17.7828 -15.3981 -59.8102
1 -18.4725 -15.2269 -58.0839
1 -14.2183 -13.544 -60.3752
2 -14.6749 -13.7966 -58.553
1 -13.1118 -14.7422 -57.9211
2 -11.8076 -13.5892 -57.3061
2 -19.8937 -11.4631 -59.2498
2 -19.0179 -8.7627 -57.9421
2 -15.4318 -10.1315 -58.5866
2 -14.2404 -11.6435 -60.0007
1 -15.3204 -11.9379 -58.0067
2 -11.5819 -11.0098 -58.6321
1 -20.0971 -9.48976 -59.2706
2 -21.8658 -9.17727 -59.3021
1 -18.277 -8.27458 -61.2389
2 -19.6066 -9.7821 -61.4077
1 -16.8815 -8.99118 -58.0785
2 -16.9435 -7.10698 -57.9839
1 -15.4228 -10.056 -60.5039
2 -13.311 -8.08436 -58.2921
1 -11.9568 -9.35409 -57.9553
2 -10.5072 -8.12397 -58.218
2 -19.1507 -20.8388 -55.238
1 -21.7481 25.1386 -55.7837
1 -14.3492 -18.5056 -56.447
2 -13.9385 -19.8557 -55.1916
2 -17.3857 -19.557 -56.8726
1 -20.1442 -17.5638 -56.8063
2 -15.6079 -17.9436 -55.161
2 -12.7003 -17.5875 -56.6706
2 -19.2059 -13.8655 -57.0754
2 -17.4789 -16.0311 -56.5285
2 -13.5406 -14.9815 -55.9174
2 -17.2565 -11.8775 -57.6606
2 -14.4443 -11.5935 -56.4081
1 -13.5932 -7.18529 -56.6999
2 -12.1849 -9.69149 -56.009
2 -21.5489 -4.16001 -65.1514
1 25.0964 -3.63326 -63.338
2 -18.336 -5.39921 -64.454
1 -20.2034 -6.02603 -64.739
1 -17.6864 -3.64785 -64.7932
1 -16.9213 -6.14369 -63.4599
2 -15.909 -3.57783 -65.413
1 -12.4416 -3.5518 -63.5858
2 -12.1184 -5.04992 -64.7041
2 -18.8662 -2.36152 -65.4123
1 -20.5035 -2.99002 -66.2553
1 -19.557 -1.43753 -63.331
2 -17.8517 -2.61093 -63.1868
2 -13.8662 -2.343 -63.7188
1 -15.1929 -1.95122 -64.986
2 -14.5324 -1.97953 -15.1225
2 -11.2632 -2.04587 -63.6335
1 24.8194 2.54202 -64.9806
2 -19.4878 -0.0289389 -64.4961
1 -18.1031 -0.276507 -65.8508
2 -16.429 -0.541206 -65.0635
2 -12.5147 0.671677 -64.1412
2 -21.4194 -5.74567 -63.1361
1 -20.4716 -6.02082 -61.4649
2 -19.7912 -4.24422 -61.74
2 -16.7488 -5.03562 -61.8944
1 -14.8357 -4.97184 -61.5073
2 -14.8251 -6.04179 -59.8927
2 -12.9047 -4.53698 -61.9697
1 -11.4518 -5.21463 -60.8985
2 -21.2962 -2.01275 -63.5277
2 -22.1537 -1.85729 -59.6584
1 -20.8566 -2.82192 -60.7937
2 -19.6404 -1.48756 -61.4634
1 -17.9674 -3.56339 -61.591
2 -17.6916 -2.68102 -59.9164
2 -15.1898 -3.03497 -61.2528
1 -14.3225 -1.49592 -61.9519
2 -12.4593 -1.22845 -61.495
1 -11.4092 -1.94302 -60.1361
2 -20.5976 0.802607 -60.246
1 -19.1019 -0.355071 -59.959
2 -17.5041 0.641255 -60.1624
1 -15.6586 0.844757 -60.6112
2 -14.9159 0.231343 -62.3415
1 -11.4806 -0.174087 -62.7707
2 -21.8792 -6.08175 -60.2117
1 -21.5901 -4.92756 -58.7594
2 -20.5418 -6.20366 -57.6087
2 -20.2487 -3.80642 -59.2743
2 -19.3028 -6.99768 -60.249
1 -18.6844 -6.5402 -58.284
2 -17.7691 -4.81858 -58.1775
1 -15.9868 -5.44408 -58.4105
2 -14.6596 -5.62892 -56.9987
1 -13.2073 -3.89299 -58.0292
2 -12.0089 -5.04365 -58.89
1 -10.7242 -6.01775 -57.918
2 -20.2944 -3.51601 -56.6818
2 -19.4673 -1.27099 -58.4198
1 -18.7209 -3.13343 -58.1766
2 -17.4121 -2.09091 -56.9302
1 -15.8995 -2.37242 -59.4879
2 -15.1063 -3.67561 -58.5517
2 -14.8395 -0.80311 -59.7477
2 -12.5178 -2.15267 -58.6468
1 -22.2664 -0.0311272 -59.6143
1 -18.5391 -0.441134 -57.1302
2 -16.9944 0.712811 -57.0964
1 -13.5699 -0.582411 -58.3489
2 -12.3235 0.704965 -58.4629
2 -12.023 -6.43601 -56.3663
2 -14.6135 -1.12428 -56.7827
2 -12.7587 -3.61676 -56.25
1 -15.5762 0.239049 -55.9221
2 -20.7493 24.6935 -54.2141
1 -17.5291 -20.6506 -52.269
2 -15.844 -20.632 -53.1757
1 -12.3227 -20.712 -54.5254
2 -10.7974 -20.2965 -55.4972
2 -18.9625 -17.9357 -55.4283
1 -14.7204 -18.9179 -53.6548
2 -13.1708 -17.4297 -53.6508
1 -12.6836 -16.507 -55.1305
1 -22.2852 -14.9256 -56.4602
2 -21.1282 -16.2861 -55.7988
1 -17.0367 -14.9295 -54.9029
2 -18.6105 -14.027 -54.3333
2 -16.2068 -13.5344 -55.6864
1 -14.4197 -13.2261 -55.2524
1 -11.4048 -13.8103 -55.5009
2 -10.9591 -15.6268 -55.2275
2 -21.0203 -8.75997 -55.0488
1 -19.1 -12.1987 -57.7351
2 -19.2949 -11.1435 -56.0752
1 -17.2539 -11.3992 -55.8176
2 -16.8411 -9.53905 -56.1701
1 -14.0628 -9.94216 -55.6071
2 -14.0369 -10.4509 -53.722
2 -12.6104 -12.9429 -54.2424
1 -19.5101 -9.27488 -56.1441
1 -20.8577 -5.28868 -56.0548
1 -16.6826 -7.97078 -55.1025
2 -14.7832 -8.20529 -55.7227
1 -11.0145 -8.74106 -54.7541
2 -11.8109 -7.52588 -53.614
2 -21.9983 -21.1676 -51.6665
1 24.7859 -20.2622 -53.0802
1 -21.1072 -20.1216 -50.3662
2 -21.384 -18.9895 -53.7595
2 -17.9969 -19.0037 -52.9767
2 -15.8558 24.3953 -51.1318
2 -17.5111 -21.1217 -50.4694
1 -14.7086 -21.7973 -52.3074
2 -13.2953 -20.0856 -52.8425
1 -12.55 -20.0972 -51.1485
2 -20.0547 -16.2869 -53.4581
1 -21.6467 -17.2319 -53.8224
1 -19.4748 -19.3038 -54.2727
2 -16.6584 -15.7376 -53.1561
2 -18.5791 -16.9484 -51.0474
1 -17.2934 -17.4103 -52.4809
1 -17.7478 -16.104 -49.5978
1 -19.9644 -15.7441 -51.7271
2 -15.5869 -18.2263 -52.0629
2 -13.6086 -16.8844 -50.1381
1 -12.5447 -16.6507 -52.1301
2 -11.5458 -18.3198 -51.2851
1 -20.0231 -15.0199 -55.0095
2 -20.0702 -13.955 -51.7119
1 -18.804 -12.8091 -52.9845
2 -17.3602 -13.0228 -51.8102
2 -14.9341 -13.0971 -53.208
2 -13.5656 -14.996 -51.9189
1 -12.277 -11.1024 -53.1896
2 -21.2714 -13.6454 -55.3323
1 25.0022 -9.38572 -54.1128
2 -20.2524 -11.7462 -53.1842
1 -20.4441 -10.4837 -51.91
2 -21.9787 -9.51559 -52.204
2 -17.46 -11.4874 -53.9498
1 -16.1408 -11.7463 -52.7561
2 -16.2246 -10.2585 -51.4918
1 -14.6284 -9.04081 -52.5297
2 -11.3322 -12.2691 -52.0005
2 -21.121 -6.86095 -52.5048
1 -20.0538 -7.62736 -53.8632
1 -20.403 -7.62083 -50.9079
2 -16.7083 -7.40014 -50.6662
2 -18.5167 -8.26492 -54.777
2 -19.3093 -8.72035 -52.0921
1 -17.4249 -8.72538 -51.963
2 -16.1599 -8.23388 -53.2735
2 -12.9451 -9.29072 -51.6243
1 -11.8558 -7.5011 -51.7882
2 24.9725 -18.8157 -49.8742
1 -18.3805 -20.2562 -49.0906
2 -19.7854 -18.9867 -49.6615
2 -17.5301 -19.4982 -47.3861
2 -18.9134 -21.5713 -47.7167
2 -13.7379 -21.7736 -50.7204
2 -13.5273 -19.2999 -49.5979
2 -10.9215 -21.0942 -50.9177
2 -12.4195 -21.9303 -48.0669
2 -21.8842 -16.8854 -47.5984
2 -21.1709 -16.3068 -50.3859
1 -20.5144 -17.4831 -48.9343
2 -18.8528 -16.8996 -48.0239
1 -17.1157 -17.7672 -47.3426
1 -15.0938 -18.2511 -50.1474
2 -16.0383 -17.2407 -48.9263
1 -14.8182 -15.6135 -49.0765
2 -13.7861 -14.3903 -48.27
1 -12.0087 -17.7977 -49.4409
1 -20.1448 -13.3559 -49.9003
2 -21.3284 -13.5444 -48.4317
2 -18.6759 -14.2791 -49.0098
1 -16.8619 -13.2718 -49.9288
1 -15.4745 -14.6349 -52.1811
2 -16.2069 -14.982 -50.1913
2 -11.8151 -12.9977 -49.5899
1 -13.5596 -12.4265 -49.0359
2 -15.0066 -12.6448 -50.2667
2 -19.9625 -11.4487 -50.1858
2 -18.6888 -10.3315 -47.2612
1 -17.5515 -12.0664 -46.8783
2 -17.0304 -11.9598 -48.6506
1 -15.754 -10.8455 -49.6101
2 -13.9154 -10.5729 -49.2227
1 -12.197 -10.7212 -47.0609
2 -11.3006 -10.4115 -48.6806
1 -19.6833 -10.3024 -48.6854
2 -20.5465 -8.75205 -49.3658
1 -20.9656 -7.42517 -47.9216
2 -16.4261 -9.27275 -48.7788
1 -19.4363 -5.29572 -48.7546
1 -15.5804 -7.50548 -49.1162
2 -13.6079 -7.83306 -49.012
1 -12.5317 -9.33521 -49.6655
2 -10.9085 -8.28352 -50.4008
2 -19.7173 -19.3784 -45.6329
1 -18.4675 -20.82 -46.0387
1 -15.2016 -21.1068 -46.0774
2 -13.9402 -19.5573 -46.3258
2 -15.0377 -21.211 -48.0438
1 -13.3272 -20.2581 -47.942
2 -10.3827 -22.2499 -46.0802
1 -22.0003 -16.2343 -45.7433
2 -15.7234 -16.6548 -46.3303
2 -20.3793 -14.8322 -45.9492
1 -21.5093 -13.2181 -46.4575
2 -17.7305 -14.0285 -46.1218
1 -19.0502 -14.9749 -47.2727
1 -12.9697 -13.6823 -45.9339
2 -11.209 -14.4128 -46.7007
2 -18.2233 -11.8136 -44.6553
2 -13.087 -12.3106 -47.1253
2 -21.4597 -8.91794 -46.7629
1 -16.999 -9.36531 -47.0017
1 -13.8221 -7.63907 -46.9234
2 -15.6413 -7.25621 -47.2564
2 -13.0645 -9.28499 -46.2694
2 -19.7421 -5.831 -54.5269
1 -18.1283 -4.87972 -54.0629
2 -16.8594 -5.95907 -54.9509
1 -15.2971 -4.96769 -55.3239
2 -13.8912 -5.62816 -54.306
1 -12.2013 -5.01084 -55.0106
2 -10.4162 -5.29009 -54.26
2 -21.1455 -3.38613 -53.905
1 -20.369 -2.33977 -55.2542
2 -18.228 -3.10282 -54.1695
1 -17.039 -2.07484 -55.0804
2 -15.3305 -3.13116 -54.9708
1 -13.7566 -2.23811 -55.4667
2 -12.8248 -1.02045 -54.6092
2 -12.571 -3.66953 -53.5312
2 -19.1939 -0.925507 -55.4541
1 -20.0341 0.217711 -54.0724
2 -16.1543 -0.504166 -54.3352
1 -12.7292 0.846411 -54.6398
2 -21.1741 -4.09448 -51.4185
1 -21.5428 -5.23594 -53.3026
1 -16.6238 -5.53372 -51.152
2 -18.3389 -5.07137 -52.1494
2 -17.9795 -4.52622 -49.6663
1 -19.1964 -3.83727 -51.0826
2 -13.4547 -6.44354 -51.6427
2 -15.6766 -4.60239 -52.3919
1 -13.828 -4.75226 -52.5501
2 -13.4673 -3.93011 -50.8585
2 -10.7078 -5.88641 -51.2671
2 -19.8993 -2.15229 -50.5547
1 -21.4028 -2.28211 -52.257
2 -12.9775 -1.32492 -51.6764
2 -10.4347 -2.91447 -52.1169
1 -11.857 -1.92196 -53.0826
2 -10.6137 -0.447239 -53.2208
2 -20.3984 -0.698334 -52.5324
1 -19.4238 -0.380898 -50.9886
2 -20.375 0.971336 -50.2865
2 -18.5157 1.16873 -53.1996
2 -17.5899 -0.317961 -51.1845
1 -16.5957 0.620412 -52.7949
2 -15.2569 0.566055 -51.3699
1 -13.3466 0.455632 -51.3235
2 -20.8526 -6.25249 -49.6735
1 -22.188 -4.5923 -49.7538
2 -20.7212 -3.98337 -48.6538
1 -16.864 -3.31308 -48.6799
1 -13.5165 -5.62394 -49.8993
2 -15.3099 -5.57564 -49.49
1 -10.4454 -5.4636 -49.4257
2 -12.1832 -5.42599 -48.617
2 -21.0478 -0.942005 -47.8917
1 -20.0584 -2.45033 -47.9916
2 -18.2173 -2.16738 -48.1521
1 -16.0804 -0.52431 -50.0654
2 -15.6315 -2.36205 -49.7709
1 -13.7072 -2.26937 -49.964
1 -10.5312 -1.75467 -48.5019
2 -12.3588 -2.39933 -48.4856
2 -16.5972 0.260518 -48.3199
2 -13.9006 -0.38053 -49.4821
1 -12.9213 0.453372 -48.1158
2 -11.6181 1.09737 -50.8191
2 -11.1214 0.0538687 -47.7776
2 -19.548 -6.21749 -47.1554
1 -16.8495 -6.00918 -46.2519
2 -16.3566 -4.29313 -47.16
2 -12.9736 -6.31343 -45.981
2 -13.7129 -3.31996 -46.0706
1 -15.5581 -3.31942 -45.6507
2 -10.8858 -4.2894 -46.1807
1 -12.3991 -3.99272 -47.3593
1 -21.0507 -0.102971 -46.245
2 -19.861 -3.1862 -46.1568
2 -16.2472 -1.49725 -45.9378
1 -17.6042 -0.733098 -46.9574
2 -21.6288 1.88818 -45.9402
2 -18.9938 0.484719 -46.8043
2 -14.0071 1.044 -46.5275
1 -15.5579 1.66907 -47.5809
1 -21.3209 -19.8472 -44.8659
2 -16.6674 -20.5733 -45.0582
2 -11.0787 -22.2586 -43.3901
2 -21.9408 -16.0342 -43.8555
1 -14.1928 -17.7684 -45.9189
1 -18.8499 -18.6182 -44.0058
2 -12.3492 -17.4119 -45.3119
1 -19.2722 -13.529 -44.8285
1 -16.0845 -15.0111 -45.4469
2 -14.5559 -13.9006 -45.0618
1 -10.902 -16.231 -45.8962
2 -12.3676 -12.936 -44.2128
1 -19.8594 -10.9787 -44.1539
2 -16.2901 -10.9148 -46.1475
1 -21.4302 -8.03658 -45.1355
2 -19.9108 -9.0588 -44.2206
2 -17.4559 -7.98461 -45.7898
2 -14.4872 -8.05808 -43.8602
2 -21.0822 -21.2794 -43.5308
1 -20.0545 -20.6818 -42.0198
2 -18.4496 -20.2655 -43.2041
2 -22.0035 -20.8727 -40.9372
1 -16.8481 -21.2612 -43.1678
2 -16.1611 -20.0732 -41.7832
2 -15.2135 -22.2461 -43.4351
1 -12.3218 -21.3641 -42.2866
2 -13.0714 -19.752 -43.0063
1 -22.1323 -17.7958 -42.7049
2 -20.5685 -18.8129 -43.1742
2 -20.9826 -16.7243 -41.4994
2 -18.2572 -17.5015 -42.4056
1 -16.5211 -18.2698 -41.6024
2 -14.7929 -17.4475 -41.9509
1 -13.1964 -18.4783 -41.4996
1 -11.8793 -18.5909 -43.8923
2 -11.4291 -17.7579 -42.2824
2 24.9876 -13.7215 -42.5735
1 -21.0392 -14.9933 -42.4403
2 -19.3631 -14.41 -43.1838
2 -16.4147 -15.4948 -43.6791
1 -17.9234 -15.5184 -42.6714
1 -15.1991 -15.5824 -41.9182
2 -13.8866 -14.0864 -42.0901
2 -20.9174 -12.398 -44.9624
2 25.0279 -8.33667 -43.5703
1 -20.4656 -9.35815 -39.5422
2 -19.8095 -11.038 -42.3024
1 -16.3816 -11.1047 -44.1804
1 -14.1714 -12.8184 -43.5341
2 -15.8042 -12.079 -42.5587
2 -14.4642 -11.0169 -44.2585
1 -14.734 -10.8679 -41.2609
1 -10.9199 -12.7478 -42.9691
1 -21.7097 -7.38491 -42.1191
2 -17.2142 -9.71031 -43.2673
1 -18.1335 -8.2483 -44.0871
2 -17.6469 -6.91535 -42.8699
1 -13.3897 -9.47219 -44.1163
2 -13.5107 -9.68029 -42.0125
2 -11.4734 -9.27997 -43.762
2 -11.4102 -7.52475 -41.7612
2 -19.7713 -19.5853 -40.48
1 -21.3714 -20.3542 -39.2441
2 -20.3431 -21.3383 -37.9697
2 -17.2847 -20.7165 -39.1373
1 -18.4359 -21.9486 -38.1555
1 -15.6422 -20.9726 -40.1475
2 -14.018 -19.9691 -40.0503
2 -15.2665 24.693 -40.1885
1 -12.6232 -20.9504 -39.1914
2 -11.2952 -20.565 -40.7097
2 -11.8194 -19.5502 -38.0845
2 -19.621 -16.7159 -39.2638
1 -19.5239 -17.7952 -40.792
2 -17.1356 -17.8355 -39.8599
1 -17.3333 -18.9154 -38.4613
2 -12.4973 -17.5885 -39.9249
1 -10.9489 -18.3806 -39.1782
2 -20.5214 -14.0643 -40.7032
1 -19.7696 -14.9525 -39.2237
2 -21.7604 -16.4002 -37.1374
2 -17.0804 -15.1657 -41.077
2 -18.164 -14.4062 -38.5265
1 -16.5751 -15.3936 -39.2641
2 -15.952 -13.4909 -39.1748
1 -13.3288 -16.0686 -39.2272
2 -14.8484 -15.786 -39.9911
1 -12.7051 -13.3207 -40.7677
2 -12.257 -14.5154 -39.3256
1 -10.5673 -15.0891 -38.4328
1 -19.9319 -12.3592 -40.9803
2 -20.5548 -11.3573 -39.3911
1 -18.0436 -10.3808 -41.5677
2 -18.1067 -12.1897 -40.6099
1 -17.649 -12.6905 -38.8719
2 -16.3527 -9.99292 -40.7265
2 -13.7982 -11.8994 -39.996
1 -14.7554 -12.3276 -38.4344
2 -11.5463 -11.9296 -41.4239
1 -10.7613 -10.513 -40.3095
2 -22.4172 -5.64336 -41.8754
2 -20.2476 -8.87155 -37.7322
1 -21.5887 -9.51192 -36.5468
2 -18.9275 -8.76213 -40.5851
1 -18.5232 -6.94617 -40.964
2 -16.755 -6.86827 -40.2293
1 -16.26 -8.46845 -39.4993
1 -13.006 -8.22999 -40.9138
2 -14.4242 -8.48596 -39.5827
2 -11.857 -9.06738 -39.4027
1 -10.8865 -7.63314 -38.2564
1 -19.0908 -19.8817 -35.8275
2 -22.1442 -21.5057 -34.6891
2 -17.8818 -21.1683 -36.5162
2 -14.6823 -21.5438 -37.3564
1 -16.0377 -20.8084 -36.4192
2 -12.5224 -20.4673 -35.0394
2 -20.8517 -19.2023 -36.1129
1 -20.3219 -17.7158 -37.6296
2 -18.8557 -18.802 -37.5228
2 -15.9148 -19.0908 -37.1995
1 -15.0043 -17.4226 -36.5568
1 -12.1225 -19.1981 -36.2301
2 -10.3704 -16.9772 -38.0618
2 -10.4723 -18.6453 -35.5053
2 -19.3097 -16.4694 -36.2125
1 -20.477 -14.8821 -36.1663
2 -16.5111 -16.5296 -37.7031
1 -17.4732 -16.0887 -36.1061
2 -13.732 -16.1424 -37.3714
1 -13.1694 -14.5825 -36.6124
2 -11.3577 -14.4044 -36.8
2 -20.8653 -14.1415 -37.8004
1 -21.6157 -12.4238 -38.1411
2 -17.4174 -11.869 -37.2095
1 -17.8619 -12.9451 -35.7178
1 -16.6708 -10.1664 -36.6446
2 -14.2602 -13.0905 -36.8628
2 -15.0798 -10.5572 -37.8449
1 -13.8923 -11.3028 -35.9837
2 -12.5909 -10.5392 -37.1311
2 -10.9791 -11.8004 -35.5228
1 -10.5261 -10.5906 -36.9497
2 -21.5632 -11.4487 -36.4008
1 -18.6898 -8.25381 -36.9074
2 -17.1645 -8.86859 -37.919
2 -18.3065 -9.58159 -35.6332
1 -13.5406 -9.33311 -38.1601
2 -14.2045 -7.81594 -36.9942
2 -10.5221 -8.61263 -36.6938
1 -19.9466 -5.05172 -45.5686
2 -21.2449 -6.24851 -44.9782
2 -18.1628 -5.25108 -45.0854
2 -15.6957 -5.4627 -44.9473
1 -13.0463 -3.12868 -44.3111
1 -11.2176 -6.03194 -45.4129
2 -20.7149 -0.684695 -44.5308
1 -19.8289 -2.24962 -44.4097
1 -14.3621 0.00223445 -44.8218
2 -20.4517 -3.92588 -43.8267
1 -20.6018 -4.72862 -42.1933
2 -20.0907 -6.5791 -42.1329
2 -18.5546 -4.35722 -41.8737
1 -17.2936 -5.01225 -43.2862
2 -15.6107 -5.44054 -42.4213
1 -14.4624 -6.19957 -43.8386
2 -12.9802 -5.06311 -43.5491
1 -11.891 -5.78535 -42.2067
2 -21.3226 -3.1701 -41.249
2 -16.6097 -3.32445 -44.0349
2 -18.3584 -1.32153 -43.5069
1 -16.412 -1.56871 -43.5497
2 -16.1216 -1.42117 -41.6718
2 -14.3386 -1.77914 -44.0711
2 -13.0523 -0.834515 -41.374
2 -11.5787 -2.59513 -43.3956
1 -12.0501 -2.2913 -41.6529
2 -20.6552 -0.215566 -41.753
1 -21.6833 1.33106 -41.8323
2 -15.9991 0.378554 -43.6929
1 -19.1301 0.235758 -42.7311
2 -17.9486 1.13349 -41.4372
2 -12.8301 0.856902 -44.0197
1 -12.3833 0.673362 -42.145
2 -10.4782 0.634711 -42.0003
2 -18.9826 -5.59578 -39.5608
1 -18.1861 -3.9147 -40.122
2 -16.2826 -3.90809 -40.4108
1 -15.374 -5.63183 -40.6019
1 -15.9186 -3.81477 -38.05
2 -13.5519 -6.31518 -40.9982
2 -14.5361 -5.24213 -38.8291
1 -12.7059 -4.96458 -39.6433
2 -13.4182 -3.45919 -40.945
2 -11.0713 -4.81611 -40.8239
2 -11.9344 -6.15474 -38.2708
2 -21.5382 -1.1556 -38.8541
1 -20.5986 -1.67476 -40.3979
2 -17.8315 -3.83764 -38.2127
2 -18.8962 -2.14905 -39.8327
1 -17.9296 -1.15166 -38.4887
1 -15.0132 -2.39076 -40.5925
2 -14.6875 -2.37074 -38.6389
2 -12.0099 -3.55788 -38.4752
1 -16.2262 0.437084 -41.223
2 -16.703 -0.114981 -39.3971
1 -16.2579 1.27083 -38.2342
2 -14.7131 1.3449 -41.3424
2 -11.9013 -0.367676 -38.4075
1 -19.1061 -5.11243 -37.7418
2 -20.6501 -4.4984 -36.993
2 -15.9018 -4.97567 -36.5979
2 -18.5214 -6.44747 -36.615
1 -14.3261 -6.01137 -37.1055
2 -12.9449 -5.36652 -35.9967
1 -11.5571 -4.66122 -37.0239
1 -20.6539 -0.5067 -37.3177
2 -19.6643 -1.89824 -36.1239
2 -16.9117 -1.61554 -36.9448
1 -12.8789 -1.96878 -37.9949
2 -13.4328 -1.66395 -36.2151
1 -15.2473 -1.00086 -36.1276
2 -11.2747 -3.33713 -35.6844
2 -19.0101 0.264794 -37.9428
2 -14.6928 0.332442 -37.4909
1 -12.9161 0.968033 -37.4252
2 -12.0812 1.32563 -35.8656
2 -9.9381 -20.8794 -33.8028
2 -16.1273 -17.0651 -34.9832
2 -13.4059 -17.9441 -35.5542
1 -10.3398 -13.5705 -35.4591
2 -15.2015 -9.89282 -35.2381
1 -14.2839 -8.07435 -35.1891
2 -15.9754 -7.10026 -34.9823
2 -20.972 -19.2821 -33.081
1 -19.4616 -20.2904 -32.7206
2 -19.4281 -21.3588 -34.2583
2 -16.0268 -20.9557 -34.5714
2 -18.0763 -18.7878 -34.7579
2 -17.6134 -19.6943 -32.3329
1 -16.5076 -19.3342 -33.9096
2 -14.7872 -19.4721 -32.6804
1 -13.8032 -21.1371 -32.0127
1 -11.4065 -21.841 -34.5347
2 -11.5806 -19.0021 -32.2728
2 -21.8361 -18.0917 -30.7891
1 24.8566 -17.5053 -32.3309
2 -17.2592 -16.7533 -32.1926
2 -14.2388 -16.8613 -32.8714
1 -12.9599 -16.6309 -34.2115
2 -11.3031 -16.6344 -33.3667
2 -21.987 -14.924 -35.034
2 -20.0323 -15.4714 -32.7852
1 -21.6175 -14.8893 -33.3139
2 -21.8996 -12.7981 -33.3314
2 -17.0878 -14.5703 -35.3859
1 -15.9815 -16.0394 -33.2434
2 -18.5307 -12.444 -32.4689
2 -15.6249 -14.2966 -33.0768
2 -13.5028 -14.876 -34.7988
1 -13.8466 -13.5797 -33.4135
2 -12.7112 -13.8354 -31.8972
2 -10.3528 -14.2031 -33.787
1 -10.8593 -13.1974 -32.2763
2 -22.3275 -8.90766 -34.9315
1 -20.8506 -12.0525 -34.7251
2 -19.6368 -13.3393 -35.32
1 -16.8214 -12.7842 -33.0084
2 -17.2225 -11.6306 -34.5503
2 -15.287 -11.7886 -32.2349
2 -13.4791 -11.8697 -34.1964
1 -11.8054 -10.8824 -34.0012
2 -11.184 -11.3087 -32.3057
1 -21.7858 -9.45036 -33.0628
2 -21.5275 -7.68815 -32.4991
1 -16.7443 -7.54585 -33.3053
2 -20.267 -10.4042 -33.8747
1 -18.4036 -10.2382 -33.914
2 -16.9874 -9.36839 -32.8739
2 -13.7129 -6.95571 -33.8447
2 -12.5428 -9.18026 -34.8252
1 -11.0114 -8.16806 -34.7889
2 -11.2636 -8.01211 -32.3944
2 -20.9434 -21.9789 -28.2427
2 -19.8264 -21.1528 -31.1378
1 -21.0551 -20.8141 -29.7338
2 -20.5133 -19.2825 -28.8685
2 -17.0125 -19.8919 -29.8197
1 -16.7238 -21.4117 -30.9263
1 -13.2477 -21.2018 -29.1659
2 -13.5566 -19.9387 -30.5776
2 -16.0764 -22.2376 -29.2458
2 -20.3883 -15.7496 -29.8533
1 -20.5206 -17.6386 -29.5508
2 -18.8716 -17.713 -30.469
1 -19.0147 -15.9487 -31.3015
1 -17.2932 -18.3722 -30.9579
1 -15.3934 -16.8358 -28.7408
2 -15.6839 -17.8415 -30.1931
1 -14.1812 -18.1945 -31.421
2 -12.9458 -16.9862 -30.7051
1 -12.2175 -16.6212 -28.9535
1 -11.2275 -17.3779 -31.4603
2 -10.8876 -17.7689 -29.5156
1 -21.8675 -12.5091 -31.2206
2 24.2366 -13.3519 -30.4138
2 -18.0438 -14.5348 -30.4035
1 -20.8723 -14.2111 -28.7586
2 -16.6992 -12.4733 -29.8995
1 -18.5611 -12.7291 -30.6226
2 -14.9128 -15.0588 -29.7098
1 -13.4671 -14.1477 -30.2635
2 -11.9206 -14.8166 -29.4083
2 -20.4728 -13.303 -30.3785
2 -21.6651 -10.6688 -31.127
1 -20.8705 -10.7971 -29.35
2 -18.9868 -11.1637 -29.6963
2 -16.0005 -9.8639 -29.6072
1 -15.1772 -11.5455 -30.2883
2 -13.5582 -12.2076 -29.6202
2 -10.6036 -12.5269 -29.0997
1 -21.8511 -6.35434 -30.98
2 24.5207 -9.75069 -28.7019
2 -18.0218 -8.1334 -30.3798
1 -18.2157 -9.63745 -29.1629
1 -15.1731 -10.1861 -33.2189
1 -13.3187 -7.52848 -32.0687
2 -13.9489 -9.31989 -32.147
2 -15.5397 -7.11695 -31.7721
2 -13.0076 -7.37559 -30.0484
1 -11.2378 -7.78741 -29.5404
2 -21.4517 -18.9868 -25.8681
2 23.7706 -20.7587 -27.7806
2 -17.8126 -20.7296 -27.2832
1 -16.2443 -20.4724 -28.2293
2 -12.6808 -21.9332 -25.8587
2 -14.3555 -20.3771 -27.8992
1 -11.5067 -21.0833 -27.0151
1 -20.4921 -17.6028 -26.4415
2 -21.5994 -16.9923 -27.9801
2 -20.1361 -16.1752 -25.0278
2 -18.8618 -17.665 -27.0562
1 -17.1545 -17.6285 -26.3428
2 -16.9118 -16.061 -28.1672
2 -15.8665 -18.4855 -27.2819
1 -13.9016 -18.7284 -26.6797
2 -13.7639 -17.2489 -27.9758
2 -11.9196 -19.2444 -26.7451
1 -11.8362 -16.0224 -25.5692
1 -19.7374 -14.4039 -25.6767
2 -19.5543 -14.3732 -27.4494
2 -16.6371 -13.587 -27.4238
1 -16.6498 -14.3951 -29.063
2 -12.436 -12.9508 -26.9346
2 -11.3657 -15.9128 -27.3007
1 -10.9362 -14.0144 -27.8182
2 -19.3287 -11.3019 -26.0283
1 -21.0765 -11.7295 -26.2438
2 -21.3444 -12.1834 -28.0777
1 -18.7773 -9.42982 -26.1389
2 -17.5837 -9.21003 -27.5161
2 -14.2854 -10.4772 -27.0857
1 -12.997 -11.4403 -27.9669
2 -11.5438 -10.2465 -27.6544
1 -21.7634 -8.31197 -28.3118
2 24.9357 -7.77791 -26.6622
2 -20.2069 -9.14855 -28.6248
2 -20.1295 -8.35677 -25.2427
1 -15.585 -9.0689 -27.536
2 -15.3296 -7.6106 -28.6685
2 -15.0801 -8.21635 -25.9413
1 -14.7723 -6.31446 -25.9932
2 -10.7047 -7.45504 -27.7374
1 -10.586 -8.998 -26.5178
2 -12.2215 -8.55019 -25.3494
2 -9.81391 -21.5903 -26.3876
1 -16.5739 -14.2541 -25.8394
1 -13.226 -12.9834 -25.2328
1 -13.677 -9.68704 -25.3162
1 -20.1469 -3.84777 -35.3117
1 -17.252 -5.68104 -35.4194
2 -18.3018 -4.05113 -35.1823
1 -17.7229 -2.30501 -35.3787
2 -19.3378 1.20743 -35.1662
2 -20.7547 -5.17598 -33.8817
1 -19.7582 -6.60315 -33.0942
2 -18.0488 -6.20552 -33.6498
2 -16.1188 -4.39809 -32.8784
1 -12.7431 -5.415 -34.1967
2 -10.9239 -6.1726 -34.4349
1 -10.5791 -6.11009 -32.1786
2 -12.5371 -5.68028 -32.164
2 -21.7021 -0.298241 -35.7838
2 -21.0766 -2.59248 -34.009
1 -20.3552 -0.916971 -34.4766
2 -18.3843 -1.17785 -33.982
1 -18.1862 -1.66818 -32.2771
2 -13.304 -3.61051 -33.6107
2 -16.2257 -1.48265 -32.2331
2 -15.7384 -2.44767 -34.8353
1 -15.0564 -2.91006 -33.077
1 -12.5974 -2.08591 -34.509
2 -11.0671 -1.05612 -34.3494
2 -20.8577 0.254085 -32.9445
2 -13.5971 -0.70832 -33.3796
2 -15.9413 0.300683 -34.8324
1 -15.4402 -0.0509788 -33.1023
2 -10.8521 0.620821 -32.2741
1 -12.4554 -0.430101 -31.9938
1 -18.95 -6.63215 -29.767
2 -19.9689 -6.03828 -31.1676
1 -20.9776 -3.75498 -32.5428
2 -19.4485 -6.36991 -28.0291
1 -16.1101 -8.10945 -30.2665
2 -17.743 -5.30527 -30.2674
1 -18.5246 -3.6396 -30.1498
1 -13.8442 -6.10834 -28.9449
2 -15.1939 -5.09958 -29.6492
2 -10.6248 -4.22029 -31.7247
2 -12.6314 -4.4978 -29.3776
1 -12.5682 -3.9337 -31.2114
2 -20.0122 -3.46479 -28.8559
2 -22.2623 -4.56623 -31.5004
1 -20.6866 -1.77125 -28.5562
2 -21.5541 -0.552759 -29.7138
2 -19.3453 -3.08215 -31.7112
2 -17.0163 -2.49738 -29.7667
2 -14.3055 -3.04802 -31.1943
1 -15.2132 -3.21428 -29.5794
2 -11.7435 -2.05104 -31.3555
1 -20.4707 0.198014 -31.15
1 -17.4814 -0.694805 -29.4059
2 -18.7087 -0.379369 -30.9498
2 -16.4395 1.08834 -29.4641
2 -13.3408 0.338845 -30.5752
2 -10.6381 0.67262 -29.3677
2 -20.9531 -4.6229 -26.0708
2 -22.3213 -6.92724 -29.358
1 25.1232 -5.83537 -25.9096
2 -16.3024 -5.41236 -26.5384
2 -18.3611 -3.62818 -26.3136
2 -13.2368 -6.07686 -27.186
1 -11.4243 -5.75804 -26.8737
2 -11.6048 -3.68003 -26.4315
1 -19.5521 -4.6837 -27.388
2 -21.3857 -1.68572 -26.7566
2 -18.7794 -0.427675 -25.451
1 -17.5695 -2.0149 -26.3621
2 -16.5629 -0.706161 -27.3515
1 -14.6772 -1.43114 -26.6816
2 -14.3256 -2.86246 -27.9205
2 -11.8504 -1.43816 -28.3418
1 -12.4444 -3.1476 -28.0733
2 -20.9165 1.0434 -27.2513
1 -19.1796 0.57887 -27.0487
2 -19.0051 -1.04648 -28.1606
2 -14.1014 0.210488 -27.4391
2 -11.0517 0.748725 -25.7017
1 -12.6125 0.265845 -28.6839
2 -13.3441 -1.33781 -25.2141
1 -22.2192 -19.4646 -24.3068
2 -19.1302 -20.2135 -24.2626
1 -18.3836 -21.2667 -25.6874
2 -16.8382 -18.5687 -24.4837
2 -16.5901 -21.7518 -24.8544
1 -15.7463 -20.1795 -23.8705
2 -14.2458 -19.6845 -24.9777
1 -12.9009 -20.9648 -24.2619
2 -11.2461 -21.7757 -23.4576
2 -11.9924 -19.267 -23.7524
2 -21.5156 -18.1059 -23.0999
1 -21.6082 -16.3735 -23.7812
1 -18.2427 -19.0906 -22.9682
1 -16.6035 -16.6873 -23.3654
2 -18.1979 -17.2642 -22.4026
2 -16.6608 -16.0424 -25.4217
1 -13.3796 -17.9611 -23.687
2 -13.3053 -17.2781 -25.4493
2 -14.9378 -17.6704 -22.5841
2 -12.1381 -16.8481 -22.5668
2 -21.5642 -14.7203 -22.7167
2 -21.5213 -13.3664 -25.467
1 -22.2573 -13.1876 -23.5858
2 -18.1662 -13.5182 -24.9733
2 -14.9623 -13.8006 -24.9499
1 -15.4521 -13.6084 -23.0935
2 -13.596 -13.4127 -22.3724
2 -12.2278 -14.329 -24.4806
1 -12.4383 -14.9996 -22.5274
2 -19.7294 -11.8876 -23.3327
2 -17.4478 -10.1188 -24.867
1 -18.1669 -11.8581 -24.3259
2 -13.1017 -11.2725 -24.38
1 -11.8847 -10.9558 -22.8743
2 -21.6121 -9.23148 -23.0029
1 -19.069 -7.35357 -23.9819
2 24.9359 -6.79422 -24.2981
2 -17.1956 -7.20361 -24.3271
1 -16.3149 -8.81458 -24.0274
2 -14.4995 -9.11691 -23.5156
2 -12.4917 -6.87726 -22.869
2 -11.3526 -9.03761 -22.6208
1 -11.0985 -7.62042 -23.9713
1 -20.1456 -21.1765 -22.7624
2 24.9758 -19.8017 -21.0472
2 -19.5003 -19.521 -21.5872
1 -22.3595 -21.4994 -20.2766
2 -16.6549 -19.9577 -22.2591
1 -17.3381 -21.5642 -21.6047
2 -14.1761 -20.9882 -22.8292
1 -12.9888 -21.1497 -21.2031
2 -11.3504 -20.112 -21.2417
1 -21.2063 -18.3819 -21.2317
2 -21.361 -16.711 -20.6009
1 -14.8727 -17.6048 -20.5452
1 -17.861 -16.2718 -20.6775
2 -16.0768 -15.9817 -20.4747
2 -18.1303 -17.5717 -19.193
2 -14.0035 -16.2777 -19.0051
2 -13.2318 -18.543 -20.2995
1 -11.4904 -18.1846 -21.0579
2 -11.0243 -17.0814 -19.5274
1 -21.0358 -14.7979 -20.7764
2 -20.8434 -12.8752 -20.2907
2 -18.9799 -14.7783 -20.4052
1 -18.4926 -13.1533 -19.6543
2 -16.5547 -14.9694 -22.7763
1 -15.4149 -14.6985 -19.1909
2 -13.9774 -13.4242 -19.49
1 -12.2157 -15.6774 -19.1104
2 -11.8237 -14.6223 -20.6184
1 -20.317 -11.629 -21.6755
2 -20.4661 -10.2621 -20.3836
2 -16.5978 -11.982 -23.0752
2 -18.3927 -11.8279 -20.8816
1 -16.7836 -11.0152 -21.5509
2 -13.283 -10.5078 -21.517
1 -12.8768 -12.4647 -20.7312
2 -15.6181 -11.033 -20.2539
2 -11.1423 -12.0391 -21.5014
2 -19.3782 -8.06339 -22.16
1 -20.966 -8.68574 -21.3539
2 -21.1554 -7.20401 -20.1893
2 -16.8714 -9.18514 -22.1031
1 -17.8467 -7.97896 -21.0055
1 -13.1527 -8.64319 -22.2812
2 -13.6562 -8.07136 -20.4452
2 -10.0475 -10.1108 -19.6089
2 -20.9169 -18.859 -19.0959
1 -22.2293 24.2022 -17.3841
2 -20.5184 23.4332 -17.2907
2 -17.5445 -20.9422 -19.8522
1 -18.8724 -19.5753 -19.6142
2 -19.2695 -20.3218 -17.7902
2 -15.8585 -21.1521 -17.4718
2 -13.8452 -21.1153 -19.487
1 -15.6561 -20.7677 -19.4257
2 -11.5614 -19.9782 -17.9061
2 -22.0978 -18.9505 -16.6465
2 -18.5866 -15.7103 -16.404
2 -15.5273 -18.9194 -19.4465
1 -13.2491 -19.51 -18.6572
2 -13.5743 -18.4921 -17.0958
2 -16.0388 -15.3871 -17.633
2 -11.037 -17.2862 -16.7646
1 -11.8809 -18.8568 -16.247
2 -20.8686 -15.4457 -18.2123
1 -19.9432 -14.4775 -17.0257
2 -19.5691 -12.7303 -18.0052
2 -16.7888 -13.3456 -19.0699
1 -15.9693 -13.6634 -16.259
2 -17.3233 -12.3972 -15.8776
2 -12.305 -14.5351 -17.6642
1 -11.6362 -15.6218 -16.1221
2 -20.9744 -10.0629 -17.3895
1 -18.7081 -11.4586 -16.6071
2 -17.6478 -10.6087 -17.8993
1 -15.976 -11.5475 -18.4228
2 -14.9973 -12.4751 -17.1615
2 -15.0965 -9.82046 -18.2605
2 -12.7825 -11.3191 -19.153
1 -13.2221 -12.871 -17.7773
2 -11.9628 -11.8425 -16.7417
1 -21.5901 -8.14884 -16.7858
1 -20.8394 -11.4141 -18.8089
2 24.5549 -7.52698 -17.9078
2 -14.8027 -7.51884 -16.5163
2 -16.5457 -8.11875 -19.4775
1 -17.7131 -8.73652 -18.2046
2 -12.5183 -6.1129 -18.5753
1 -14.1448 -9.87063 -19.9082
1 -10.8232 -8.17597 -16.4204
2 -12.4485 -9.06653 -17.3901