9160
 Atoms. Timestep: 6000
1 -20.7506 24.3719 -65.0383
2 24.1764 24.3212 -16.4469
2 -19.3794 25.0724 -65.9846
1 -19.5698 -20.469 -66.4219
1 -16.5651 -19.2899 -15.2795
2 -18.8062 -19.8703 -64.8311
2 -15.2194 -20.0745 -65.7009
2 -11.7451 -18.5976 -64.0176
1 -12.0223 23.4351 -16.0097
2 -20.0282 -18.4254 -66.3316
2 -19.2596 -16.0979 -65.2729
1 -21.8267 -18.6207 -66.4689
1 -19.0303 -17.9346 -64.8619
2 -17.2083 -17.8906 -65.6435
1 -18.0535 -15.2042 -66.4321
1 -13.37 -19.2642 -65.4258
2 -13.9547 -17.4903 -64.8902
1 -12.1671 -16.5919 -64.3041
1 -19.6054 -14.5341 -64.1786
2 -21.2232 -13.5709 -64.4552
2 -18.3413 -13.7337 -65.2799
1 -17.7202 -11.9705 -65.6619
2 -15.5606 -15.4808 -64.4265
1 -14.537 -14.7443 -65.8512
2 -12.91 -14.5723 -64.6533
2 -14.279 -13.0833 -15.1885
1 -11.5484 -13.3642 -65.3077
2 -11.052 -13.2426 -63.5028
1 -21.0021 -12.6963 -66.0813
2 -21.6415 -10.1248 -64.1283
2 -18.268 -10.6596 -64.1945
2 -15.9146 -12.0843 -64.7383
1 -14.2583 -11.4342 -65.6561
2 -14.7945 -9.88045 -15.1807
2 -14.2795 -9.81686 -64.0625
1 -11.0841 -10.8883 -15.3864
2 -12.2849 -11.5835 -65.4325
1 -21.7935 -8.87153 -65.4035
2 -19.924 -8.04988 -65.3759
2 -16.6894 -7.69374 -65.2699
1 -18.3678 -8.74359 -64.6041
1 -14.8782 -8.51636 -65.1888
2 -13.8528 -7.13474 -65.8946
1 -13.3606 -6.32906 -64.2221
2 -12.2765 -7.87292 -63.573
2 -21.7671 -21.087 -59.5264
1 -19.8503 -21.2324 -60.1657
2 -19.8408 -21.016 -61.9133
1 -18.6679 -19.9843 -62.826
2 -16.7548 -20.1578 -62.7898
1 -21.0769 -20.3103 -17.826
2 -13.6769 -20.5316 -63.8843
2 -13.5137 -21.3984 -61.122
1 -15.5108 -21.095 -64.0558
1 -12.7295 -19.8806 -62.3074
2 -19.4273 -18.1541 -62.8379
1 -20.7334 -16.8594 -62.383
2 -20.0056 -16.5663 -58.3561
1 -15.8488 -17.3229 -64.5543
1 -16.0014 -18.6273 -61.763
2 -16.4301 -17.1886 -62.832
1 -13.2892 -16.9224 -60.9563
2 -11.8542 -18.1192 -60.536
2 -21.9206 -16.4584 -63.9031
2 -20.3132 -14.1924 -60.0496
2 -19.3669 -12.5624 -61.7029
2 -19.4985 -15.4457 -62.5499
1 -18.7239 -14.3083 -61.2522
2 -17.0952 -14.081 -62.4463
2 -14.5489 -13.6528 -62.3297
2 -15.0558 -16.0606 -60.8522
1 -15.7208 -15.331 -62.5163
2 -12.3298 -16.0443 -62.4518
1 -12.5977 -14.0436 -62.6312
2 -12.4113 -13.4217 -60.8899
1 -20.9178 -12.448 -60.3841
2 -21.9367 -11.384 -61.6256
1 -21.3953 -9.74105 -62.3933
1 -16.0432 -12.522 -62.8812
1 -18.505 -11.034 -62.2776
2 -16.6477 -11.2096 -61.8564
1 -13.1772 -9.28065 -62.671
2 -11.7343 -10.2863 -61.8831
1 -12.1489 -11.5199 -60.3993
2 -22.1432 -8.12366 -62.0372
2 -18.1081 -7.53556 -63.1572
2 -14.3967 -8.6434 -61.2236
1 -13.7073 -7.32535 -60.0687
2 -17.1485 -8.77425 -60.3272
2 -14.9688 -5.81992 -63.5906
2 -12.051 -6.94314 -60.744
2 -18.5288 -20.962 -58.9274
1 -19.2143 -20.7888 -57.1944
2 24.0536 -14.0476 -62.7588
1 -16.9339 -19.8244 -58.9531
2 -15.8539 -21.2919 -59.4121
2 -14.8279 -19.0646 -58.6384
1 -14.0643 -20.4955 -59.6387
2 -12.9583 -20.8577 -57.9626
1 -11.2068 -20.0277 -57.2406
2 -9.14134 22.732 -56.953
2 -20.5618 -19.5436 -57.7376
1 25.063 -20.042 -58.0172
2 -17.1198 -18.4627 -60.2603
1 -16.5372 -16.7397 -59.7628
1 -17.417 -18.0821 -56.1072
2 -14.083 -18.7076 -61.5279
1 -11.6934 -17.377 -58.8304
2 -12.9811 -16.054 -59.3361
2 24.8086 -14.8932 -58.2451
1 -21.2754 -15.6397 -59.3408
2 -22.2542 -12.1398 -59.0765
2 -17.8872 -15.3755 -59.812
1 -18.6188 -15.3466 -58.059
1 -14.2411 -13.1125 -60.5609
2 -14.7877 -13.5732 -58.8241
1 -13.4047 -14.6876 -58.1092
2 -11.8087 -13.796 -57.6574
2 -19.6509 -11.3706 -59.1783
2 -19.1661 -8.59777 -58.1022
2 -16.0607 -10.3917 -58.7622
2 -14.1079 -11.2248 -60.6225
1 -15.6432 -12.1013 -57.8884
2 -11.6676 -11.1003 -58.7058
1 -20.1739 -9.53394 -59.4382
2 -21.9487 -9.06905 -59.4541
1 -18.296 -7.96115 -61.4085
2 -19.6432 -9.58114 -61.5204
1 -17.0139 -8.89833 -58.2629
2 -17.0109 -7.11896 -58.0386
1 -15.6116 -9.98719 -60.5504
2 -13.7258 -8.20283 -58.3373
1 -12.2519 -9.274 -57.9581
2 -10.8502 -8.11152 -58.1908
2 -19.3312 -20.7933 -55.2941
1 -21.6185 24.8237 -55.838
1 -14.1599 -19.2657 -56.8759
2 -13.9183 -20.0422 -55.3046
2 -17.4578 -19.5876 -57.213
1 -20.6218 -17.8042 -57.0936
2 -15.713 -18.2589 -55.4525
2 -12.353 -18.3477 -57.0214
2 -19.7844 -14.0913 -57.1443
2 -17.7821 -16.08 -56.4848
2 -13.601 -15.6578 -56.5303
2 -17.4014 -12.2197 -57.0901
2 -14.5429 -11.5318 -56.4062
1 -13.8056 -7.21082 -56.7096
2 -12.2389 -9.52999 -56.1297
2 -21.6495 -3.62043 -65.3814
1 25.0687 -2.85631 -63.5679
2 -18.5183 -5.24171 -64.7979
1 -20.2135 -6.02316 -64.9745
1 -17.9426 -3.44189 -64.919
1 -16.9421 -6.13676 -63.7609
2 -16.3075 -3.63022 -65.6013
1 -12.4341 -3.49278 -63.4987
2 -12.1325 -4.93135 -64.6869
2 -18.9597 -2.19683 -65.8485
1 -20.5073 -2.80956 -15.0256
1 -19.5462 -0.92137 -63.2617
2 -18.2198 -2.30519 -63.3442
2 -14.1894 -2.38734 -63.6843
1 -15.4525 -1.99785 -64.9932
2 -14.4987 -2.1582 -15.1311
2 -11.4468 -1.97874 -63.8665
1 25.1041 2.56481 -64.4942
2 -19.5748 0.273771 -64.8734
1 -18.0859 -0.26356 -66.0287
2 -16.4083 -0.492951 -65.3074
2 -12.4837 0.817846 -64.1352
2 -21.1614 -6.03726 -63.3912
1 -20.6244 -5.59089 -61.5757
2 -19.9398 -3.91878 -61.7989
2 -17.0078 -4.87811 -62.1342
1 -14.9998 -4.89503 -61.7761
2 -15.1283 -6.00017 -60.22
2 -13.0466 -4.50512 -61.9708
1 -11.7018 -5.05226 -60.6954
2 -21.481 -1.35176 -63.9209
2 25.0706 -1.66468 -59.9172
1 -20.9492 -2.62456 -60.7802
2 -19.8535 -1.17128 -61.4843
1 -18.0723 -3.39986 -61.7763
2 -17.7637 -2.55151 -60.0891
2 -15.1933 -2.93968 -61.3302
1 -14.3139 -1.39806 -62.1077
2 -12.5431 -1.17588 -61.4828
1 -11.584 -1.78878 -59.9514
2 -20.3323 1.04948 -60.0279
1 -19.0148 -0.211775 -60.1454
2 -17.5746 0.639401 -60.9158
1 -15.7199 0.974966 -60.5666
2 -15.0058 0.352681 -62.3576
1 -11.527 -0.211788 -62.8602
2 -21.9186 -6.03755 -60.3807
1 -21.7367 -4.97569 -58.8422
2 -20.6304 -6.05956 -57.8095
2 -20.5088 -3.58331 -59.17
2 -19.3225 -6.7144 -60.4632
1 -18.8358 -6.51679 -58.5153
2 -17.9353 -4.76932 -58.3196
1 -16.085 -5.48871 -58.4062
2 -14.7993 -5.66488 -57.0574
1 -13.5027 -3.80449 -57.9709
2 -12.2326 -4.93722 -58.7752
1 -10.9332 -6.1539 -57.8439
2 -19.9837 -3.51258 -56.6544
2 -19.2441 -1.15097 -58.5724
1 -18.7585 -3.11709 -58.2427
2 -17.3955 -1.98836 -56.96
1 -15.9416 -2.3348 -59.7009
2 -15.3129 -3.75732 -58.6125
2 -15.181 -0.674907 -59.6658
2 -12.7864 -2.11436 -58.5474
1 24.3205 -0.269607 -59.0563
1 -18.4489 -0.244779 -57.1789
2 -16.9134 0.994462 -57.0717
1 -13.8141 -0.472506 -58.1672
2 -12.4057 0.758306 -58.2257
2 -12.1428 -6.43251 -56.3733
2 -14.669 -0.88295 -56.6504
2 -12.9527 -3.61396 -56.2033
1 -15.6279 0.583335 -55.6807
2 -20.8164 24.574 -54.1394
1 -17.5578 -20.4214 -52.1581
2 -15.9413 -20.587 -53.3097
1 -12.4904 -20.9997 -54.543
2 -10.8071 -20.3596 -55.4242
2 -19.2923 -18.0852 -55.7442
1 -14.8991 -18.9143 -53.8275
2 -13.4378 -17.524 -53.928
1 -12.8558 -17.005 -55.5732
1 24.9544 -14.82 -56.3645
2 -21.2503 -16.3099 -56.0142
1 -17.0514 -14.9153 -55.1451
2 -18.5466 -13.8859 -54.4293
2 -15.7276 -14.0118 -56.1188
1 -14.4673 -13.0107 -55.1457
1 -11.5054 -14.1637 -55.8275
2 -10.9988 -15.9771 -55.4138
2 -21.2125 -8.4315 -55.131
1 -19.2934 -12.3134 -57.6048
2 -19.6564 -10.9631 -56.0861
1 -17.745 -11.0174 -55.653
2 -16.801 -9.46025 -56.3895
1 -14.0388 -9.95611 -55.5491
2 -14.257 -10.3862 -53.7067
2 -12.7715 -13.5923 -54.6058
1 -19.9885 -9.07285 -56.3186
1 -20.5804 -5.23835 -56.2022
1 -16.869 -7.8419 -55.1412
2 -14.7937 -8.20984 -55.4768
1 -10.9566 -8.87361 -54.9324
2 -11.7436 -7.64467 -53.7683
2 -21.7906 -20.9354 -51.8225
1 24.7016 -20.2182 -53.0965
1 -21.2512 -20.1697 -50.2013
2 -21.6612 -18.8224 -53.8731
2 -18.356 -18.9791 -53.1357
2 -16.1632 -22.0683 -51.1362
2 -17.3167 -19.6829 -50.3157
1 -14.7874 -21.7498 -52.4635
2 -13.4561 -20.0892 -52.9355
1 -12.8534 -19.7716 -51.2203
2 -20.1804 -15.8902 -53.6322
1 -21.8351 -16.8649 -53.9599
1 -19.8543 -19.2286 -54.3843
2 -16.3583 -15.7995 -53.5916
2 -18.6902 -16.7212 -51.4226
1 -17.3431 -17.3739 -52.6883
1 -17.8854 -16.1099 -49.8704
1 -20.3124 -15.8658 -51.694
2 -15.6492 -18.1165 -52.172
2 -13.3492 -16.5952 -48.274
1 -12.6378 -16.6288 -52.4607
2 -11.9859 -18.04 -51.2452
1 -19.9697 -14.8583 -55.2971
2 -20.0409 -13.9326 -51.5014
1 -19.1029 -12.9406 -52.8052
2 -17.811 -12.2792 -51.5482
2 -15.2469 -13.1183 -53.2879
2 -13.6252 -15.1199 -51.8184
1 -12.613 -10.5781 -52.8063
2 -21.5872 -13.7631 -55.263
1 25.0023 -9.50579 -54.3358
2 -20.6289 -11.8091 -53.057
1 -20.5248 -10.4359 -51.724
2 -22.0731 -9.57511 -52.2324
2 -17.3748 -11.5533 -54.0413
1 -16.237 -11.6605 -52.517
2 -16.1416 -9.93485 -51.5183
1 -14.7921 -8.83451 -52.6445
2 -11.9198 -12.1568 -52.1437
2 -21.3787 -6.87557 -52.679
1 -19.9912 -7.71324 -53.7952
1 -20.5694 -7.44768 -50.947
2 -16.7432 -7.23008 -50.7137
2 -18.681 -8.24923 -55.022
2 -19.3877 -8.58976 -52.0989
1 -17.468 -8.57889 -51.7784
2 -16.4737 -8.05702 -53.3508
2 -12.9527 -9.06505 -51.6321
1 -11.7624 -7.33745 -52.0004
2 24.7627 -19.1079 -49.6567
1 -18.4569 -19.9684 -48.8488
2 -20.0125 -18.9332 -49.1385
2 -17.584 -19.3707 -47.2398
2 -18.5657 -21.585 -47.8359
2 -13.6047 -21.4423 -50.6244
2 -13.9367 -18.9201 -49.732
2 -11.2843 -20.5371 -50.8642
2 -12.5457 -21.6964 -48.0642
2 -22.0564 -17.0502 -47.258
2 -21.1934 -16.02 -49.8641
1 -20.6009 -17.2488 -48.5592
2 -18.6779 -16.5343 -48.1235
1 -17.1022 -17.6201 -47.3474
1 -15.7302 -18.6703 -50.2802
2 -16.1928 -17.1988 -49.0996
1 -14.8428 -15.6637 -49.2695
2 -14.1004 -14.2237 -48.501
1 -12.1962 -17.6558 -49.3482
1 -20.2617 -13.1911 -49.7787
2 -21.2252 -12.8677 -48.2139
2 -18.3676 -14.044 -49.2059
1 -16.9152 -13.0977 -50.094
1 -15.3625 -14.7819 -52.3671
2 -16.1774 -14.9006 -50.6077
2 -11.8797 -13.0579 -49.398
1 -13.6486 -12.3481 -49.1345
2 -15.1981 -12.2152 -50.4851
2 -20.1301 -11.1971 -49.9758
2 -18.7557 -10.6512 -47.0285
1 -17.3599 -12.0523 -46.8007
2 -16.5481 -12.0968 -48.5079
1 -15.7902 -10.5438 -49.5923
2 -13.9312 -10.4288 -49.3731
1 -12.2672 -10.3996 -47.2327
2 -11.3407 -10.2273 -48.8253
1 -19.9324 -10.0496 -48.3908
2 -20.6008 -8.37452 -49.3343
1 -21.0636 -7.50378 -47.7749
2 -16.5165 -9.11249 -48.7568
1 -19.323 -5.45397 -48.5929
1 -15.7199 -7.32964 -49.0731
2 -13.7334 -7.65857 -49.0569
1 -12.6079 -9.0552 -49.7915
2 -11.0271 -7.90452 -50.2818
2 -19.8845 -19.4875 -45.4861
1 -18.4945 -20.6769 -46.0946
1 -15.4155 -21.115 -46.1441
2 -14.3192 -19.3451 -46.4111
2 -15.2026 -21.0791 -48.1216
1 -13.494 -20.1344 -47.9713
2 -10.5261 -21.9291 -46.1173
1 24.9701 -16.0583 -45.6507
2 -15.6289 -16.5742 -46.4484
2 -19.8133 -14.6517 -46.2476
1 -21.1546 -13.3904 -46.4136
2 -17.1242 -13.972 -46.4656
1 -18.444 -14.8475 -47.4682
1 -12.9203 -13.1221 -45.8474
2 -11.5266 -14.2463 -46.6537
2 -18.0912 -12.1281 -44.5701
2 -13.3653 -11.9962 -47.3284
2 -21.2607 -9.29756 -47.04
1 -17.0526 -9.17781 -46.9027
1 -13.93 -7.5216 -46.3049
2 -15.6179 -7.31244 -47.1026
2 -13.046 -9.1311 -46.1476
2 -19.9069 -5.74246 -54.4898
1 -18.1918 -4.9411 -54.0112
2 -16.9608 -5.93139 -55.0616
1 -15.3371 -4.98066 -55.172
2 -13.8937 -5.6999 -54.2981
1 -12.2625 -4.89785 -54.9818
2 -10.4582 -5.06368 -54.4561
2 -21.2984 -3.28433 -54.0596
1 -19.964 -2.38832 -55.2625
2 -18.3202 -3.151 -54.3306
1 -17.0913 -2.00529 -55.0854
2 -15.5074 -3.08785 -55.0077
1 -13.8688 -2.10061 -55.3186
2 -12.7547 -0.967034 -54.4208
2 -12.7927 -3.53691 -53.6453
2 -18.9859 -0.724522 -55.3239
1 -19.9889 0.155254 -53.8896
2 -16.226 -0.422146 -54.2132
1 -12.7531 1.03454 -54.4174
2 -21.1794 -4.03497 -51.6294
1 -21.6264 -5.08628 -53.4812
1 -16.7189 -5.35814 -51.0427
2 -18.2789 -5.06006 -52.1513
2 -17.8437 -4.52222 -49.6699
1 -19.3056 -3.99043 -51.0053
2 -13.5314 -6.44879 -51.6278
2 -15.6938 -4.58165 -52.4061
1 -13.8695 -4.78443 -52.521
2 -13.4726 -3.96159 -50.7468
2 -10.9513 -5.70745 -51.4767
2 -19.5864 -2.31242 -50.2339
1 -21.6224 -2.35239 -52.4968
2 -12.9329 -1.38297 -51.5734
2 -10.4523 -2.91496 -52.2308
1 -11.7929 -1.96707 -53.0018
2 -10.5662 -0.378199 -53.1354
2 -20.4271 -0.980327 -52.3552
1 -19.2572 -0.604059 -50.9112
2 -20.1679 0.812545 -50.2699
2 -18.4754 1.09428 -53.0307
2 -17.399 -0.520764 -51.2596
1 -16.6762 0.631723 -52.6568
2 -15.1875 0.590278 -51.4166
1 -13.3653 0.349482 -51.306
2 -20.1273 -5.84577 -50.2333
1 -22.1214 -4.59797 -49.8666
2 -20.818 -4.11074 -48.4666
1 -16.616 -3.57523 -48.6221
1 -13.4419 -5.72233 -49.8553
2 -15.3335 -5.42528 -49.2984
1 -10.4261 -5.24993 -49.6273
2 -12.0491 -5.35984 -48.7214
2 -21.0264 -1.13875 -47.8036
1 -19.9552 -2.56323 -48.0014
2 -17.9527 -2.22559 -47.9672
1 -15.9665 -0.3453 -49.9343
2 -15.4637 -2.30827 -49.626
1 -13.562 -2.34242 -49.8695
1 -10.4648 -1.76551 -48.3885
2 -12.3251 -2.46425 -48.3643
2 -16.4649 0.385218 -48.253
2 -13.8915 -0.257545 -49.4315
1 -12.9692 0.522831 -48.1011
2 -11.6394 1.01882 -50.6249
2 -11.2098 0.101708 -47.6304
2 -19.6451 -6.40942 -47.0847
1 -16.7374 -6.08383 -46.0019
2 -16.356 -4.44665 -46.9921
2 -12.8323 -6.08356 -46.3725
2 -13.6667 -3.38453 -46.0647
1 -15.5902 -3.13174 -45.7208
2 -10.7485 -4.34307 -46.2672
1 -12.3863 -4.09527 -47.278
1 -20.9648 -0.139725 -46.1938
2 -19.6415 -3.31578 -46.0181
2 -16.1292 -1.20346 -45.756
1 -17.4798 -0.743961 -46.9549
2 -21.5993 1.90737 -45.7939
2 -19.0234 0.513356 -46.8344
2 -13.9658 1.15297 -46.5231
1 -15.5412 1.89226 -47.4169
1 -21.4355 -19.9828 -44.5249
2 -16.7359 -20.6225 -44.903
2 -11.0015 -22.0182 -43.1213
2 25.0017 -15.1467 -43.8666
1 -13.9008 -17.3162 -46.5429
1 -19.0321 -18.567 -43.996
2 -12.3259 -17.2295 -45.5302
1 -19.2366 -13.5957 -44.7183
1 -15.8661 -14.9706 -45.4857
2 -14.4924 -13.8201 -45.1357
1 -10.7432 -15.9581 -45.7858
2 -12.3231 -12.6099 -44.0622
1 -19.5957 -10.9088 -44.2503
2 -16.2718 -10.6492 -45.9949
1 -21.3496 -8.33019 -45.2574
2 -19.7179 -9.0022 -44.5486
2 -17.5274 -7.88875 -45.6409
2 -14.1621 -7.75532 -44.3003
2 -21.1862 -21.5289 -43.3646
1 -20.3672 -20.5783 -41.8204
2 -18.8616 -20.2395 -42.9319
2 -22.1177 -20.616 -40.9558
1 -17.2329 -21.1872 -43.1427
2 -16.4534 -19.9416 -41.9236
2 -15.1213 24.9903 -41.8078
1 -12.3861 -20.9082 -41.8884
2 -13.0591 -19.6548 -43.0169
1 24.8411 -17.86 -42.8253
2 -20.8336 -18.8357 -43.1276
2 -21.5188 -16.6952 -41.8213
2 -18.3002 -17.4776 -42.5292
1 -16.6564 -18.109 -41.672
2 -14.8487 -17.3717 -42.265
1 -13.3913 -18.4747 -41.4896
1 -12.0213 -18.5836 -44.1468
2 -11.8369 -17.5099 -42.5794
2 -22.2485 -12.9383 -42.0601
1 -21.2541 -14.8645 -42.351
2 -19.5084 -14.8107 -43.2997
2 -16.3974 -15.1618 -43.7426
1 -17.9668 -15.5771 -42.7771
1 -15.1666 -15.3882 -41.7712
2 -13.7347 -14.1213 -41.9874
2 -20.771 -12.4128 -44.8382
2 -22.3964 -8.58818 -43.7095
1 -20.4029 -9.4873 -39.6894
2 -19.8441 -10.8481 -42.3319
1 -16.3063 -10.8912 -44.0043
1 -14.2345 -12.7605 -43.4156
2 -15.7142 -11.9991 -42.4436
2 -14.4134 -10.898 -44.1949
1 -14.7769 -10.9176 -41.1424
1 -10.8573 -12.6899 -42.9176
1 -21.5142 -7.67619 -42.2588
2 -17.4076 -9.70822 -43.1351
1 -18.322 -7.85354 -43.9312
2 -17.282 -7.02033 -42.6279
1 -13.2925 -9.38382 -44.0211
2 -13.5817 -9.6445 -41.9523
2 -11.4313 -9.12833 -43.8726
2 -11.4698 -7.40172 -41.5983
2 -19.9262 -19.3756 -40.304
1 -21.4975 -20.1904 -39.2693
2 -20.3393 -21.1358 -38.016
2 -17.1414 -20.8176 -39.2823
1 -18.358 -21.8276 -38.209
1 -15.6292 -21.1467 -40.476
2 -13.8177 -20.0389 -40.3449
2 -14.7235 -22.2629 -39.2311
1 -13.1806 -20.9733 -38.7141
2 -11.0613 -20.1012 -40.7649
2 -11.7968 -19.7407 -37.9855
2 -19.7613 -16.5611 -39.3768
1 -20.1847 -17.566 -40.8733
2 -17.033 -17.7479 -39.846
1 -17.526 -19.0947 -38.6184
2 -12.528 -17.5512 -40.0293
1 -10.9258 -18.5053 -39.3067
2 -20.5075 -14.0617 -40.8006
1 -20.0905 -14.7778 -39.1835
2 -22.0844 -16.1596 -37.3862
2 -17.059 -15.2855 -41.2637
2 -18.3119 -14.503 -38.6474
1 -16.8922 -15.7768 -39.2505
2 -16.0107 -13.5662 -39.2201
1 -13.4291 -16.2607 -39.2321
2 -14.9704 -15.7816 -39.8874
1 -12.5109 -13.3809 -40.6313
2 -12.192 -14.6988 -39.3798
1 -10.5373 -15.1935 -38.4453
1 -20.492 -12.1661 -41.155
2 -20.7729 -11.3662 -39.473
1 -18.0615 -10.4075 -41.4897
2 -18.414 -12.0817 -40.6273
1 -17.6363 -12.8517 -39.0849
2 -16.2908 -10.2678 -40.3254
2 -13.733 -11.9444 -39.8828
1 -14.7922 -12.4778 -38.466
2 -11.4707 -11.9256 -41.319
1 -10.8991 -10.5621 -40.2759
2 -21.9107 -5.93927 -41.5428
2 -20.2124 -9.19407 -37.7438
1 -21.7761 -9.45675 -36.4401
2 -18.7439 -8.97648 -40.4634
1 -18.5585 -6.9984 -40.9269
2 -16.9086 -6.83339 -39.9556
1 -16.3477 -8.60021 -39.3243
1 -13.1437 -8.17501 -40.8685
2 -14.4265 -8.50942 -39.5005
2 -11.8645 -9.00264 -39.4247
1 -10.7797 -7.55207 -38.4172
1 -19.4671 -19.6158 -36.0533
2 25.0662 -21.5282 -35.2999
2 -17.9512 -20.745 -36.6997
2 -13.9819 -20.7644 -36.9482
1 -15.9216 -20.5229 -36.3683
2 -12.2089 -20.2795 -34.3894
2 -21.1915 -19.001 -36.3734
1 -20.6576 -17.4937 -37.7014
2 -18.9992 -18.4914 -37.7338
2 -15.8886 -19.09 -37.5288
1 -15.1349 -17.4774 -36.8773
1 -12.5031 -19.6127 -36.1734
2 -10.525 -17.0285 -38.0604
2 -10.7905 -18.6798 -35.6479
2 -19.6646 -16.1809 -36.6163
1 -20.7251 -14.6832 -36.3219
2 -16.6587 -16.435 -37.5441
1 -17.9628 -16.5542 -36.0235
2 -13.7903 -16.1991 -37.429
1 -13.188 -14.6173 -36.6236
2 -11.2972 -14.4618 -36.8228
2 -20.9231 -13.7474 -37.968
1 -21.8946 -12.1875 -38.1975
2 -17.8967 -12.0735 -37.3927
1 -17.9836 -13.2475 -35.8274
1 -16.7897 -10.6517 -36.4854
2 -14.1757 -13.1811 -36.8343
2 -15.0628 -10.7681 -37.4543
1 -13.9428 -11.3461 -35.9718
2 -12.5358 -10.7249 -37.1205
2 -10.5134 -11.7713 -35.4439
1 -10.386 -10.538 -37.0043
2 -21.8833 -11.4555 -36.5138
1 -18.7393 -8.61835 -36.7782
2 -17.1013 -9.05126 -37.5964
2 -18.1713 -9.86724 -35.4542
1 -13.5015 -9.40493 -38.0499
2 -13.9452 -7.85652 -36.9234
2 -10.6092 -8.58706 -36.777
1 -20.0086 -5.17347 -45.3931
2 -21.588 -6.47968 -45.2346
2 -18.353 -5.70665 -44.7836
2 -15.726 -5.54074 -44.4971
1 -12.9344 -3.22893 -44.2736
1 -11.189 -6.16096 -45.5896
2 -20.4668 -0.868796 -44.594
1 -19.5813 -2.45704 -44.4332
1 -14.4535 -0.126887 -44.6232
2 -20.3461 -4.14598 -43.7356
1 -20.4998 -4.75725 -41.9753
2 -19.7497 -7.13069 -42.6296
2 -18.5733 -4.99113 -41.5019
1 -17.1993 -5.0876 -43.2256
2 -15.6509 -4.92996 -42.1304
1 -14.4095 -6.12324 -43.2689
2 -12.865 -5.11155 -43.6502
1 -11.6221 -5.72172 -42.3233
2 -21.2152 -3.18034 -41.1563
2 -16.7424 -3.33144 -44.1398
2 -18.3663 -1.6232 -43.0619
1 -16.3689 -1.72881 -43.2978
2 -15.8823 -1.50474 -41.4941
2 -14.3419 -1.89724 -43.9024
2 -12.9877 -0.782446 -41.3508
2 -11.4345 -2.58106 -43.5688
1 -11.7466 -2.00294 -41.8908
2 -20.4282 -0.179084 -41.8208
1 -21.6775 1.32019 -41.8078
2 -16.0474 0.297229 -43.4811
1 -18.9902 0.164305 -42.884
2 -17.8489 1.28986 -41.6404
2 -13.0067 0.946508 -43.9787
1 -12.6542 0.873652 -42.0272
2 -10.5307 0.678431 -42.2633
2 -19.8686 -6.62009 -39.5922
1 -18.1005 -3.7523 -40.1177
2 -16.2897 -3.84721 -39.9168
1 -15.5593 -5.75273 -40.4733
1 -15.65 -3.51092 -38.1673
2 -13.9751 -6.51625 -41.4219
2 -14.1979 -5.31356 -39.1257
1 -12.6373 -4.63956 -39.8265
2 -13.1041 -3.34579 -41.1984
2 -10.9941 -4.76791 -40.8891
2 -11.9715 -6.17943 -38.5402
2 -21.3248 -1.32252 -38.8634
1 -20.4117 -1.56808 -40.5684
2 -18.3857 -4.42994 -38.5538
2 -18.666 -1.96198 -40.0277
1 -17.7377 -0.880881 -38.7834
1 -14.3789 -2.12055 -40.7207
2 -14.3292 -2.18644 -38.8401
2 -11.9078 -3.40961 -38.5432
1 -16.1228 0.515338 -41.3111
2 -16.3287 0.131346 -39.3741
1 -15.9872 1.6127 -38.2146
2 -14.493 1.39135 -41.3001
2 -11.8987 -0.287409 -38.3854
1 -19.7062 -5.61194 -38.0382
2 -20.9859 -4.86361 -37.0091
2 -15.6846 -4.97323 -36.9978
2 -18.7415 -6.72552 -36.6166
1 -14.0882 -6.04812 -37.4473
2 -13.0058 -5.174 -36.1624
1 -11.4626 -4.61156 -37.1504
1 -20.3151 -0.823708 -37.2394
2 -19.4965 -2.26323 -36.4334
2 -16.7653 -1.86996 -37.3182
1 -12.6578 -1.90918 -37.8582
2 -13.5189 -1.45089 -36.2074
1 -15.3482 -1.004 -36.1965
2 -11.4133 -3.02809 -35.842
2 -18.9467 0.24228 -37.9534
2 -14.7528 0.684091 -37.2485
1 -12.9413 1.0456 -37.4561
2 -12.0935 1.40615 -35.9473
2 -9.87725 -20.8156 -33.5986
2 -16.096 -17.1401 -35.0546
2 -13.5331 -18.0836 -35.692
1 -10.223 -13.669 -35.5125
2 -15.157 -9.78027 -34.9889
1 -14.7237 -7.95998 -35.1989
2 -16.2609 -6.86941 -35.0235
2 -21.7901 -19.2978 -33.3682
1 -20.0827 -19.5145 -32.6811
2 -19.7429 -20.7412 -34.3335
2 -16.2129 -20.1407 -34.55
2 -18.6223 -18.1365 -35.0805
2 -18.3516 -18.9238 -32.5269
1 -17.0648 -18.5959 -33.9682
2 -15.912 -18.7356 -32.3431
1 -13.0122 -21.0807 -31.8248
1 -11.3399 -22.0459 -34.269
2 -11.7373 -19.442 -31.9366
2 -20.9836 -17.9066 -31.7662
1 24.8459 -17.5199 -32.8581
2 -17.3926 -16.1844 -32.3829
2 -14.499 -16.4956 -32.9169
1 -13.1723 -16.8861 -34.3102
2 -11.4814 -17.1511 -33.4809
2 -22.2454 -14.7676 -35.1612
2 -19.828 -15.3029 -33.157
1 -21.4999 -14.75 -33.3731
2 -21.9749 -12.8599 -33.3823
2 -17.5685 -14.9028 -35.1201
1 -16.2977 -15.6999 -33.723
2 -18.2213 -11.8443 -32.8721
2 -15.5395 -14.0405 -33.0713
2 -13.5029 -15.044 -34.8277
1 -13.7178 -13.747 -33.4441
2 -12.7091 -13.5865 -31.9371
2 -10.4936 -14.2803 -33.8196
1 -10.803 -13.1888 -32.2146
2 24.9696 -9.27632 -34.8132
1 -20.8547 -11.8885 -34.8758
2 -19.8193 -13.2821 -35.4762
1 -16.4365 -12.3614 -33.2586
2 -16.5185 -12.1791 -35.144
2 -14.9546 -11.4697 -32.4167
2 -13.1064 -12.1785 -34.5063
1 -11.678 -10.9456 -34.1943
2 -11.0553 -11.2833 -32.3993
1 -21.9796 -9.5114 -32.9819
2 -21.8686 -7.66977 -32.342
1 -17.1095 -7.27599 -33.4634
2 -20.4376 -10.4718 -33.789
1 -18.5527 -9.93828 -33.5962
2 -16.8928 -9.17791 -32.9145
2 -13.7942 -6.94275 -33.9364
2 -12.4742 -9.3576 -34.6127
1 -11.0647 -8.20532 -34.9313
2 -11.1618 -7.98005 -32.2415
2 -20.6945 -21.9934 -28.2495
2 -20.1496 -20.7385 -31.3165
1 -21.1297 -20.6576 -29.645
2 -20.2954 -19.1656 -29.0976
2 -16.9423 -19.7662 -29.8239
1 -15.9338 -21.0166 -30.9759
1 -13.7063 -21.2304 -28.9553
2 -14.218 -20.1077 -30.503
2 -15.7672 24.7363 -29.8362
2 -20.5849 -15.4014 -30.3764
1 -20.4243 -17.3755 -30.0464
2 -18.6595 -16.9515 -30.3505
1 -18.9485 -15.4781 -31.5315
1 -17.3191 -18.1795 -30.9652
1 -15.4316 -16.4375 -28.5543
2 -15.8995 -17.211 -30.1694
1 -14.6104 -17.635 -31.536
2 -13.0062 -16.8671 -30.8085
1 -12.124 -16.4741 -28.9445
1 -11.4655 -17.6504 -31.4476
2 -10.8729 -17.6484 -29.5553
1 -21.9681 -12.2965 -31.5594
2 24.4799 -13.5316 -30.533
2 -18.0652 -14.1318 -30.4175
1 -20.7982 -13.8483 -29.1766
2 -16.6246 -12.1414 -30.4274
1 -18.5304 -12.3059 -30.9502
2 -14.9693 -14.6421 -29.6833
1 -13.3683 -13.8144 -30.1643
2 -11.8637 -14.6809 -29.4251
2 -20.3928 -12.7974 -30.7802
2 -21.6825 -10.4261 -31.281
1 -21.1428 -10.4283 -29.4889
2 -18.9932 -10.9441 -29.8672
2 -16.0039 -9.7403 -29.5742
1 -15.1342 -11.1314 -30.4106
2 -13.5257 -11.8611 -29.7274
2 -10.4781 -12.5506 -29.1295
1 -21.8882 -6.36014 -30.9517
2 24.5477 -10.2526 -28.8931
2 -17.9813 -8.00787 -30.1335
1 -18.3265 -9.51835 -28.9996
1 -15.0951 -9.79764 -33.1123
1 -13.0048 -7.4493 -32.0327
2 -14.4329 -8.6985 -31.8292
2 -16.2658 -6.79465 -31.9333
2 -12.6625 -7.37694 -30.0828
1 -10.9944 -7.93868 -29.6047
2 -21.4055 -19.3557 -26.272
2 24.1028 -21.2638 -27.7217
2 -17.8524 -20.6462 -27.226
1 -16.5596 -19.6638 -28.0108
2 -12.9176 -21.6385 -25.9355
2 -14.6197 -20.0776 -27.6142
1 -11.5109 -20.9444 -26.881
1 -20.4215 -18.3653 -27.3796
2 -21.3232 -17.0219 -28.461
2 -19.6967 -16.0635 -25.3955
2 -18.6595 -17.8155 -27.269
1 -17.2804 -17.3242 -26.1491
2 -16.8179 -15.3644 -27.8151
2 -16.0171 -17.9343 -27.235
1 -13.8809 -18.4177 -26.6664
2 -13.7113 -16.9708 -27.9613
2 -11.8487 -19.0924 -26.6021
1 -11.7585 -15.908 -25.681
1 -19.3532 -14.4428 -26.167
2 -19.4285 -14.1937 -27.9236
2 -16.3428 -12.875 -27.744
1 -16.647 -13.7471 -29.2942
2 -12.4172 -12.9039 -27.2063
2 -11.2065 -15.9165 -27.3757
1 -10.7393 -14.0206 -27.9173
2 -19.0265 -10.9638 -26.3533
1 -20.6247 -11.6968 -26.7002
2 -21.2358 -12.0726 -28.427
1 -18.6675 -9.12237 -26.1042
2 -17.4935 -8.89331 -27.4945
2 -14.2225 -10.2856 -27.1257
1 -13.0061 -11.2883 -28.0082
2 -11.4979 -10.1348 -27.8961
1 -21.1212 -7.54304 -28.041
2 25.0082 -7.75577 -26.699
2 -20.2108 -9.12161 -28.4825
2 -20.1381 -8.24432 -25.3195
1 -15.5508 -8.92525 -27.7101
2 -15.2007 -7.39961 -28.8665
2 -15.217 -8.07609 -26.0335
1 -14.6631 -6.08076 -26.3553
2 -10.5164 -7.51914 -27.8099
1 -10.5365 -9.04435 -26.6129
2 -12.1105 -8.30178 -25.653
2 -9.80993 -21.6166 -26.2664
1 -16.3786 -14.1886 -26.3655
1 -13.2531 -12.9256 -25.5088
1 -13.6435 -9.46425 -25.4313
1 -20.2501 -3.9299 -35.4802
1 -17.3095 -5.59085 -36.073
2 -18.2531 -4.20197 -35.364
1 -17.6695 -2.41479 -35.5836
2 -19.3012 1.34116 -35.214
2 -20.4501 -5.21123 -33.9113
1 -20.295 -6.87118 -33.013
2 -18.8951 -7.92529 -33.5331
2 -16.3001 -4.10831 -32.7393
1 -12.7975 -5.3109 -34.2664
2 -10.9136 -6.26851 -34.3248
1 -10.4434 -6.12967 -32.3334
2 -12.5738 -5.56083 -32.2482
2 -21.3561 -0.272825 -35.8044
2 -20.7584 -2.75636 -34.1341
1 -20.3037 -0.810116 -34.3603
2 -18.4542 -1.19683 -34.252
1 -18.0522 -1.55093 -32.4922
2 -13.2426 -3.48097 -33.6926
2 -16.1956 -1.35864 -32.3501
2 -15.8167 -2.44496 -34.941
1 -15.0169 -2.81208 -33.1656
1 -12.5966 -1.85374 -34.6618
2 -10.8701 -0.788383 -34.525
2 -20.6666 0.331468 -32.8667
2 -13.535 -0.677242 -33.3728
2 -15.965 0.323707 -34.851
1 -15.3252 0.0396758 -33.167
2 -10.7583 0.624898 -32.2339
1 -12.4458 -0.347736 -31.8902
1 -18.8545 -6.42795 -29.6459
2 -19.9553 -6.06591 -31.158
1 -20.7636 -3.84965 -32.5414
2 -19.6186 -6.28328 -27.8936
1 -15.9562 -8.06785 -30.4413
2 -17.7554 -4.92165 -29.7765
1 -18.5435 -3.25936 -30.0082
1 -13.626 -5.92816 -29.2181
2 -14.9289 -4.82991 -30.109
2 -10.4573 -4.22629 -31.8569
2 -12.3148 -4.32583 -29.583
1 -12.4114 -3.73097 -31.5047
2 -20.1712 -3.51521 -28.9932
2 -22.2397 -4.61612 -31.612
1 -20.7301 -1.82207 -28.4504
2 -21.646 -0.65889 -29.7251
2 -19.1465 -3.03978 -31.7505
2 -16.9464 -2.31242 -29.62
2 -14.2099 -2.72743 -31.2733
1 -15.1223 -2.97427 -29.7206
2 -11.5624 -1.95082 -31.5067
1 -20.3802 0.308763 -30.9361
1 -17.4492 -0.467523 -29.4128
2 -18.5137 -0.393586 -31.0076
2 -16.3571 1.12813 -29.5471
2 -13.392 0.622788 -30.6119
2 -10.721 0.767966 -29.2778
2 -21.0748 -4.73736 -26.0041
2 -22.2411 -6.83684 -29.2584
1 24.9041 -5.74166 -25.8148
2 -16.2545 -5.32777 -26.5962
2 -18.3594 -3.59443 -26.4578
2 -13.1352 -5.93766 -27.4073
1 -11.1905 -5.79302 -27.0428
2 -11.6332 -3.64463 -26.6562
1 -19.7951 -4.50798 -27.3216
2 -21.454 -1.71961 -26.7356
2 -18.8966 -0.579032 -25.6356
1 -17.6722 -1.88338 -26.3656
2 -16.685 -0.586663 -27.5391
1 -14.7484 -1.21539 -26.8132
2 -14.3166 -2.65609 -28.0779
2 -11.9255 -1.23821 -28.1898
1 -12.4085 -2.96311 -28.2863
2 -20.8939 1.19698 -27.2642
1 -19.0931 0.703928 -27.1215
2 -19.218 -0.737585 -28.4483
2 -14.168 0.368768 -27.5331
2 -11.0157 0.790392 -25.6165
1 -12.594 0.44487 -28.7088
2 -13.3176 -1.43088 -25.4391
1 -21.6966 -19.3193 -24.5313
2 -19.2681 -20.0905 -24.3503
1 -18.4908 -21.219 -25.6415
2 -17.0517 -18.725 -24.8008
2 -16.7207 -21.4854 -24.6485
1 -15.6561 -20.0283 -24.134
2 -14.1106 -19.3454 -25.0172
1 -12.7968 -20.8096 -24.1603
2 -11.1577 -21.6394 -23.6371
2 -11.9447 -19.2099 -23.5099
2 -21.1388 -17.9713 -23.4164
1 -21.1569 -16.152 -24.331
1 -18.178 -18.867 -23.3451
1 -16.4456 -16.3206 -23.2344
2 -17.9964 -17.1068 -22.5147
2 -16.5713 -15.896 -25.093
1 -13.2106 -17.7482 -23.7239
2 -13.2858 -16.9016 -25.3333
2 -14.7522 -17.388 -22.7006
2 -11.9567 -16.5511 -22.7666
2 -21.2354 -14.7186 -23.1967
2 -21.0964 -13.3848 -25.776
1 -21.7595 -12.9947 -23.8583
2 -17.9426 -13.5181 -25.3714
2 -14.9101 -13.6261 -25.2381
1 -15.3683 -13.4602 -23.4183
2 -13.6699 -13.5121 -22.4354
2 -12.0301 -14.1321 -24.7833
1 -12.1431 -14.6425 -22.7371
2 -19.7763 -11.8425 -23.7627
2 -17.5855 -9.74696 -24.6871
1 -18.0752 -11.6308 -24.7045
2 -12.9337 -11.2615 -24.764
1 -12.0152 -10.8708 -23.1341
2 -21.7429 -9.35479 -23.0584
1 -19.2514 -7.39554 -23.9693
2 25.0251 -6.77024 -24.2596
2 -17.3596 -7.03857 -24.5608
1 -16.2131 -8.53747 -24.243
2 -14.4512 -9.06852 -23.7654
2 -12.7297 -6.77528 -23.4002
2 -11.6534 -9.0351 -23.0107
1 -11.1353 -7.44697 -24.1164
1 -20.0727 -21.0919 -22.7557
2 -22.3862 -19.5254 -21.0876
2 -19.4958 -19.2471 -21.5261
1 -22.3282 -21.3426 -20.405
2 -16.5896 -19.6621 -22.4152
1 -17.1085 -21.1281 -21.3366
2 -14.2984 -20.8718 -23.0686
1 -14.3146 -21.9989 -21.528
2 -10.9204 -20.5698 -20.9075
1 -21.0787 -18.3814 -21.7012
2 -20.9437 -16.7853 -20.7594
1 -14.568 -17.335 -20.7545
1 -17.9895 -16.4455 -20.7132
2 -16.0751 -16.0234 -20.7305
2 -18.2354 -17.5801 -19.2625
2 -13.6624 -15.9468 -19.8538
2 -12.7154 -18.2593 -20.6097
1 -11.0789 -17.5268 -21.2939
2 -10.4622 -16.3937 -19.922
1 -20.6944 -14.8949 -21.3886
2 -20.5358 -13.0581 -20.9139
2 -18.8602 -14.8615 -20.6593
1 -18.41 -13.2616 -20.077
2 -16.5584 -14.5807 -22.5557
1 -15.3802 -14.6899 -19.5058
2 -13.8805 -13.3752 -19.5796
1 -12.1053 -15.2931 -19.3823
2 -11.5425 -14.2255 -20.8737
1 -19.7925 -11.6096 -21.9714
2 -20.3427 -10.4148 -20.7408
2 -16.3915 -11.7975 -23.5593
2 -17.964 -11.9482 -21.2209
1 -16.513 -10.84 -21.9763
2 -13.4839 -10.7611 -21.9024
1 -12.8636 -12.4013 -20.9784
2 -15.5487 -10.8169 -20.4098
2 -11.1097 -11.8325 -21.7713
2 -19.2954 -8.22655 -22.3169
1 -20.8711 -8.7413 -21.4212
2 -21.0679 -7.32425 -20.1727
2 -16.6359 -9.01899 -22.2619
1 -17.8108 -8.02866 -21.2108
1 -13.2751 -8.38298 -22.431
2 -13.3969 -8.13703 -20.5615
2 -9.67303 -10.0051 -19.5039
2 -20.7891 -18.7506 -18.7375
1 -22.1505 24.0708 -17.8314
2 -20.3254 23.4561 -17.345
2 -17.3506 -20.3786 -19.506
1 -19.0091 -19.3071 -19.6317
2 -19.3974 -20.8356 -18.2976
2 -15.5872 -20.9873 -17.4902
2 -13.9823 -20.9838 -19.9403
1 -14.9243 -19.7166 -18.6382
2 -11.615 -20.2218 -18.2119
2 -21.2886 -20.3721 -15.8748
2 -18.6097 -15.7517 -16.7512
2 -15.5347 -18.7238 -19.8549
1 -12.472 -19.9096 -19.9025
2 -13.814 -18.5749 -17.6901
2 -15.7032 -15.7587 -17.8866
2 -11.353 -17.1802 -17.1602
1 -11.4426 -18.9984 -16.718
2 -21.187 -15.5142 -18.0347
1 -19.8005 -14.511 -17.4632
2 -19.4114 -12.8807 -18.2964
2 -16.7827 -13.3796 -19.1928
1 -15.9043 -13.3534 -16.3607
2 -17.2881 -12.2235 -16.0115
2 -12.2928 -14.4671 -17.7543
1 -11.9293 -15.7381 -16.1046
2 -20.7697 -10.6651 -17.5085
1 -18.9879 -11.4137 -16.8526
2 -17.7462 -10.7356 -18.3231
1 -15.9923 -11.4707 -18.7777
2 -14.9226 -12.3528 -17.5104
2 -15.0636 -9.71783 -18.3124
2 -12.5356 -11.0782 -19.3835
1 -13.084 -12.7922 -17.9676
2 -11.5376 -11.911 -17.102
1 -21.5812 -7.14982 -16.4521
1 -20.8236 -11.4993 -19.2476
2 24.533 -7.18083 -17.7944
2 -14.6308 -7.32863 -16.7646
2 -16.3596 -8.05331 -19.7384
1 -17.3989 -8.84715 -18.3833
2 -12.591 -5.96777 -18.4368
1 -13.9445 -9.84039 -20.152
1 -10.3319 -8.12057 -15.9775
2 -12.4229 -9.09712 -17.3868
2 -22.3506 -21.5814 -18.608