9160
 Atoms. Timestep: 8000
1 -20.649 24.1068 -64.9332
2 24.1821 23.5108 -16.6089
2 -19.2527 24.8868 -65.949
1 -19.3303 -20.5606 -66.4232
1 -16.6054 -18.8907 -15.1338
2 -18.4907 -19.7951 -64.893
2 -15.5048 -19.5652 -65.3865
2 -11.756 -18.7802 -64.5336
1 -12.0633 23.5476 -15.7211
2 -20.3806 -18.7692 -66.3663
2 -19.6474 -16.0944 -65.3499
1 -22.2638 -18.9704 -14.9961
1 -19.3179 -17.9456 -65.0101
2 -17.4785 -17.4376 -65.742
1 -18.1068 -15.4247 -66.2708
1 -13.5523 -19.3985 -65.1946
2 -14.0446 -17.643 -64.7608
1 -12.4007 -16.8315 -64.3535
1 -19.8877 -14.6079 -64.1117
2 -21.4403 -13.7027 -64.548
2 -18.4895 -13.8671 -65.1621
1 -17.9777 -12.0156 -65.4091
2 -15.699 -15.5176 -64.2566
1 -14.7412 -15.1081 -65.798
2 -13.1481 -14.9172 -64.6203
2 -14.4075 -13.182 -66.3004
1 -11.9456 -13.508 -64.9043
2 -11.3174 -13.5988 -63.0441
1 -21.2448 -12.8075 -66.1653
2 -21.8731 -10.3314 -64.2216
2 -18.5646 -10.6401 -64.4047
2 -16.1788 -12.0959 -64.4719
1 -14.4286 -11.5998 -65.3433
2 -14.3935 -10.1589 -15.1545
2 -14.4372 -9.98828 -64.0582
1 -11.4182 -11.0782 -66.468
2 -12.5582 -11.6864 -65.0932
1 -21.8108 -8.78762 -65.322
2 -20.0836 -7.95373 -64.9058
2 -16.6562 -8.09618 -65.5704
1 -18.2746 -8.77761 -64.7896
1 -14.7895 -8.59868 -65.4766
2 -13.8255 -7.0217 -65.5049
1 -13.1394 -6.3348 -63.7883
2 -12.3179 -8.08456 -63.5936
2 -21.9794 -21.0164 -59.6373
1 -20.1963 -21.4528 -60.302
2 -19.8875 -21.226 -62.0584
1 -18.9586 -20.0367 -63.0279
2 -16.9372 -20.1812 -62.632
1 -21.4648 -20.3876 -17.5324
2 -13.8696 -20.5332 -63.7245
2 -13.5896 -21.9881 -61.0293
1 -15.794 -20.9321 -63.8949
1 -12.6477 -21.0223 -62.3684
2 -19.8759 -18.2392 -63.2147
1 -20.8951 -16.8552 -62.4673
2 -19.8077 -16.6437 -58.4121
1 -15.9092 -17.3468 -64.5437
1 -16.1446 -18.798 -61.6306
2 -16.5574 -17.3124 -62.795
1 -13.3429 -17.5888 -61.0846
2 -12.0523 -17.9748 -59.8671
2 -22.199 -16.7209 -63.9709
2 -20.1463 -14.1417 -60.1378
2 -19.4106 -12.6959 -62.0586
2 -19.4551 -15.5438 -62.5195
1 -18.5348 -14.341 -61.1506
2 -16.8312 -13.9107 -62.0267
2 -14.0985 -14.1993 -62.1394
2 -14.991 -16.5107 -60.7453
1 -15.545 -15.3803 -62.2782
2 -12.4617 -16.5194 -62.3862
1 -12.3587 -14.775 -61.7015
2 -12.6275 -12.8697 -60.3724
1 -20.7493 -12.3628 -60.54
2 -21.9604 -11.5353 -61.761
1 -21.5171 -9.75688 -62.4723
1 -16.0248 -12.0966 -62.6317
1 -18.7808 -11.032 -62.6357
2 -17.0746 -10.7559 -61.8866
1 -13.2776 -9.48556 -62.7059
2 -11.7404 -10.337 -62.0443
1 -11.4068 -11.5624 -60.5219
2 -22.2904 -8.23881 -62.057
2 -17.7316 -7.83916 -63.1175
2 -14.3609 -8.68038 -61.4677
1 -13.6759 -7.34688 -60.1376
2 -17.0928 -8.63761 -60.1775
2 -14.9663 -6.31643 -63.1857
2 -11.9382 -6.89055 -60.6971
2 -18.8938 -20.9451 -59.0526
1 -19.2488 -20.6608 -57.1822
2 24.2294 -14.2958 -62.6275
1 -17.3198 -20.0202 -59.1358
2 -16.0576 -21.3856 -59.6989
2 -15.692 -17.7932 -57.6595
1 -14.3303 -20.6107 -59.984
2 -13.6125 -20.6138 -58.1595
1 -10.9736 -19.531 -56.956
2 -9.69441 23.4602 -57.2558
2 -20.6196 -19.4838 -57.5523
1 24.9522 -20.0846 -57.9727
2 -17.0384 -18.4469 -60.0871
1 -16.24 -16.8303 -59.2912
1 -17.2058 -18.051 -56.3187
2 -14.3877 -19.2828 -61.2503
1 -11.9451 -16.6237 -58.4511
2 -12.4982 -15.3147 -59.8024
2 25.0145 -14.619 -58.1662
1 -21.0966 -15.6544 -59.3714
2 -22.1895 -12.0244 -59.208
2 -17.4919 -15.4074 -59.6964
1 -18.5218 -15.3175 -58.1477
1 -14.4763 -13.0333 -60.7067
2 -14.8227 -13.2876 -58.8525
1 -13.1283 -14.0532 -58.4344
2 -11.8913 -13.1779 -57.4103
2 -19.6572 -11.4557 -59.1839
2 -18.9392 -8.67388 -58.1948
2 -15.8622 -10.3871 -58.9303
2 -14.5999 -11.3787 -61.5456
1 -15.6901 -12.0301 -57.9109
2 -11.2398 -10.689 -58.8307
1 -19.9136 -9.5946 -59.4318
2 -21.6872 -8.77095 -59.2871
1 -18.3272 -8.05119 -61.3686
2 -19.6601 -9.45177 -61.3619
1 -16.8328 -8.85093 -58.2446
2 -16.7544 -6.95657 -58.18
1 -15.7122 -9.84579 -60.7754
2 -13.6198 -8.21763 -58.4113
1 -12.1061 -9.26578 -57.969
2 -10.7876 -7.97234 -58.2507
2 -19.3134 -20.9283 -55.1604
1 -21.3473 24.8719 -56.0488
1 -14.2286 -18.9842 -57.2399
2 -14.1377 -19.516 -55.4379
2 -17.4565 -19.8306 -57.2035
1 -20.7494 -17.7128 -57.0992
2 -16.4164 -17.8895 -54.6719
2 -12.4226 -18.1611 -57.0693
2 -19.5045 -14.0707 -57.2457
2 -17.6995 -16.0524 -56.3791
2 -13.0629 -15.5931 -57.2512
2 -17.3243 -12.1181 -57.1263
2 -14.8338 -11.5128 -56.2824
1 -13.689 -7.04202 -56.8723
2 -12.3967 -9.46827 -56.0498
2 -21.3138 -3.99732 -65.2152
1 25.0134 -2.84743 -63.8184
2 -18.4696 -5.40028 -64.7147
1 -20.2995 -5.99096 -64.8714
1 -17.8842 -3.68588 -64.8301
1 -16.8337 -6.20012 -63.6656
2 -16.0265 -3.6784 -65.4956
1 -12.3884 -3.49217 -63.6925
2 -12.1417 -5.0351 -64.8442
2 -18.6214 -2.51879 -65.9351
1 -20.2843 -3.15882 -14.9545
1 -19.6645 -1.16068 -63.431
2 -18.2487 -2.43701 -63.4362
2 -13.8158 -2.09243 -64.0287
1 -15.2192 -1.84632 -65.2237
2 -14.7757 -2.07852 -15.3813
2 -11.0841 -2.18192 -63.6661
1 -22.02 2.72887 -64.813
2 -19.6487 0.187719 -65.0097
1 -18.0416 -0.437154 -66.0688
2 -16.3759 -0.523757 -65.3355
2 -12.183 0.718884 -64.2801
2 -21.2968 -6.04991 -63.2613
1 -20.6319 -5.71322 -61.4481
2 -19.8462 -4.03028 -61.7329
2 -16.7801 -4.84091 -62.2238
1 -14.9304 -4.887 -61.8179
2 -14.988 -5.92279 -60.1448
2 -12.9473 -4.88032 -62.2279
1 -11.3751 -5.1413 -60.9838
2 -21.5721 -1.29455 -64.0337
2 24.9043 -1.74593 -60.0716
1 -20.9144 -2.57074 -60.8075
2 -19.9545 -1.10314 -61.595
1 -18.0106 -3.4803 -61.7851
2 -17.5763 -2.67052 -60.159
2 -14.9607 -2.96857 -61.4301
1 -14.1716 -1.44539 -62.2441
2 -12.3736 -1.11313 -61.5362
1 -11.2962 -1.82863 -60.1529
2 -19.969 1.32327 -60.2043
1 -18.8391 -0.110452 -60.3998
2 -17.1748 0.383826 -61.1253
1 -15.4163 0.817465 -60.4782
2 -14.7219 0.360518 -62.2811
1 -11.2893 -0.428981 -63.0681
2 -21.9714 -6.01684 -60.2673
1 -21.6179 -4.85265 -58.8128
2 -20.4535 -6.00814 -57.7452
2 -20.3591 -3.46024 -59.2576
2 -19.0992 -6.48852 -60.4905
1 -18.6604 -6.42972 -58.6425
2 -17.7923 -4.72732 -58.3923
1 -15.891 -5.30877 -58.6275
2 -14.7231 -5.47939 -57.0558
1 -13.2554 -3.70673 -58.1382
2 -11.9106 -4.71183 -59.0367
1 -10.8281 -5.86436 -57.947
2 -19.9499 -3.4418 -56.6819
2 -19.038 -1.01343 -58.7087
1 -18.694 -3.03612 -58.2237
2 -17.3081 -2.08258 -57.0662
1 -15.7849 -2.44057 -59.9167
2 -14.9927 -3.57511 -58.6704
2 -14.9904 -0.802304 -59.6319
2 -12.5355 -2.03061 -58.6932
1 24.3056 -0.129346 -59.3761
1 -18.1829 -0.282069 -57.177
2 -16.7925 0.924475 -57.0241
1 -13.6409 -0.593672 -58.3449
2 -12.3143 0.740284 -58.2239
2 -12.1153 -6.12258 -56.4878
2 -14.5185 -0.920861 -56.7069
2 -12.7889 -3.32311 -56.3295
1 -15.4603 0.493822 -55.8709
2 -20.9021 24.5218 -54.1462
1 -17.6422 -20.2981 -52.1828
2 -16.004 -20.3496 -53.0856
1 -12.757 -20.7369 -54.6571
2 -11.0112 -20.2716 -55.214
2 -19.1856 -18.2392 -55.9188
1 -14.9182 -18.5198 -53.7905
2 -13.5654 -16.8921 -54.0677
1 -12.728 -16.6828 -55.6828
1 -22.2055 -14.7376 -56.3982
2 -20.9241 -16.1432 -56.0615
1 -16.8168 -14.9464 -55.1075
2 -18.1922 -13.6058 -54.7293
2 -15.4046 -14.2958 -55.9723
1 -14.4229 -13.071 -55.1204
1 -11.3082 -13.9564 -55.5833
2 -10.9171 -15.8801 -55.3756
2 -21.1849 -8.40895 -55.1503
1 -19.2237 -12.2686 -57.5295
2 -19.4158 -10.7638 -56.3439
1 -17.3902 -10.9618 -55.6321
2 -16.5491 -9.33276 -56.2302
1 -14.2638 -9.85781 -55.5513
2 -14.3417 -10.3931 -53.7245
2 -12.7672 -13.8202 -54.5311
1 -19.788 -8.86095 -56.3572
1 -20.6359 -5.14355 -56.1822
1 -16.7317 -7.74744 -55.103
2 -14.6234 -7.95625 -55.4614
1 -11.1633 -8.66194 -54.8833
2 -12.1275 -7.74186 -53.6406
2 -21.199 -20.103 -52.1987
1 24.8449 -19.9483 -53.3827
1 -21.0419 -20.0098 -50.3771
2 -21.5584 -18.5872 -54.4955
2 -18.6106 -18.798 -52.9736
2 -16.3203 -22.2547 -50.7049
2 -17.3391 -19.5987 -50.404
1 -15.1246 -21.8318 -52.2085
2 -13.4114 -19.5837 -53.1489
1 -12.9888 -19.7323 -51.3053
2 -19.872 -15.9639 -53.689
1 -21.7354 -16.7016 -54.0827
1 -19.7214 -19.2043 -54.424
2 -16.8662 -15.5078 -53.3124
2 -18.6132 -16.5563 -51.3665
1 -17.4265 -17.2627 -52.9742
1 -17.7937 -15.9446 -49.9025
1 -20.1971 -15.7629 -51.7785
2 -15.7197 -17.8748 -52.0616
2 -13.4359 -16.5678 -48.2277
1 -12.7848 -16.528 -52.4126
2 -11.9993 -17.7681 -51.201
1 -19.6062 -14.7635 -55.2433
2 -20.0786 -13.8498 -51.7435
1 -18.7313 -13.0002 -52.9026
2 -17.2802 -12.9175 -51.7523
2 -15.0184 -13.0433 -53.1558
2 -13.812 -15.0843 -51.7957
1 -12.6823 -10.4131 -52.9384
2 -21.1198 -13.6687 -55.2157
1 25.0454 -9.43772 -54.3021
2 -20.1346 -11.7111 -53.2707
1 -20.092 -10.3536 -51.9864
2 -21.9129 -9.55693 -52.3583
2 -17.2271 -11.1613 -53.7937
1 -15.8427 -11.4393 -52.5588
2 -16.3158 -9.95696 -51.3138
1 -14.3032 -7.38744 -53.5252
2 -12.0513 -11.9654 -52.282
2 -21.2241 -6.74782 -52.6116
1 -19.9787 -7.48409 -53.8154
1 -20.4962 -7.45535 -51.0239
2 -16.9197 -7.13423 -50.5194
2 -18.6 -8.03601 -54.9779
2 -19.1472 -8.54597 -52.1615
1 -17.1359 -8.42647 -51.8829
2 -16.0575 -7.96295 -53.3894
2 -12.8017 -9.1711 -51.5483
1 -11.8322 -7.42343 -51.8335
2 24.7745 -19.0817 -49.9782
1 -18.3058 -19.9428 -48.845
2 -19.9142 -18.9072 -49.3409
2 -17.3301 -19.25 -47.3016
2 -18.8612 -21.326 -47.745
2 -13.7441 -21.5657 -50.9291
2 -13.9318 -18.9541 -49.6989
2 -11.1864 -20.2239 -50.9013
2 -12.3156 -21.6633 -48.5516
2 -21.7191 -17.242 -47.3234
2 -20.9888 -16.0416 -49.992
1 -20.2427 -17.2002 -48.7077
2 -18.6477 -16.5992 -48.0656
1 -16.997 -17.5208 -47.2863
1 -15.7356 -18.5738 -50.3288
2 -16.2168 -17.1837 -49.0732
1 -15.0725 -15.5856 -48.7887
2 -14.1914 -14.0447 -48.2493
1 -12.2635 -17.5168 -49.3261
1 -20.0204 -12.8841 -49.8806
2 -21.1341 -12.0895 -48.3536
2 -18.5672 -14.0995 -49.2941
1 -16.7896 -13.022 -49.9231
1 -15.6471 -14.5849 -52.2568
2 -16.1367 -14.9833 -50.2607
2 -12.1961 -13.1604 -49.6665
1 -13.8452 -12.294 -49.0723
2 -15.0846 -12.2629 -50.5107
2 -19.6055 -11.0527 -50.2601
2 -18.8598 -10.429 -47.2308
1 -17.5543 -11.8747 -46.7772
2 -16.903 -11.8017 -48.5866
1 -15.996 -10.3751 -49.5183
2 -14.1977 -10.3551 -49.0645
1 -12.3098 -10.3906 -46.9534
2 -11.5601 -10.42 -48.7493
1 -20.282 -10.179 -48.5657
2 -20.5826 -8.38096 -49.4484
1 -21.2714 -7.5503 -47.8233
2 -16.6863 -8.8655 -48.5816
1 -19.5338 -5.35989 -48.5802
1 -15.79 -7.17631 -48.916
2 -13.947 -7.58259 -49.4523
1 -12.7066 -9.15121 -49.6375
2 -11.021 -7.90445 -50.0065
2 -19.5175 -19.3971 -45.4329
1 -18.1288 -20.765 -46.0059
1 -15.243 -20.9764 -46.3432
2 -14.1089 -19.3585 -46.5248
2 -15.1503 -20.9588 -48.2025
1 -13.342 -20.0227 -48.1351
2 -10.3583 -22.0249 -46.1725
1 -22.2851 -15.9122 -45.8852
2 -15.4228 -16.3992 -46.548
2 -20.0488 -14.5084 -46.1376
1 -21.2544 -12.9378 -46.6743
2 -17.3832 -13.9231 -46.3861
1 -18.7389 -14.815 -47.3956
1 -12.8807 -13.1979 -45.8949
2 -11.4487 -14.3113 -46.6449
2 -18.1643 -11.9675 -44.736
2 -13.3037 -11.9204 -47.1374
2 -21.546 -9.24895 -47.0213
1 -17.3551 -9.14046 -46.85
1 -13.9865 -7.35161 -46.0669
2 -15.5641 -6.93285 -47.0859
2 -13.1953 -8.94949 -46.4032
2 -19.7842 -5.60975 -54.4191
1 -18.0704 -4.76642 -54.0481
2 -16.8127 -5.71717 -55.0457
1 -15.2788 -4.743 -55.3795
2 -13.9315 -5.52524 -54.2641
1 -12.2433 -4.81526 -55.0697
2 -10.54 -5.29026 -54.3219
2 -21.3743 -3.16942 -54.2458
1 -19.9804 -2.28796 -55.2673
2 -18.3769 -3.03316 -54.2952
1 -17.0875 -1.84927 -55.0618
2 -15.4708 -2.94321 -54.9265
1 -13.8867 -2.10492 -55.3915
2 -12.8123 -0.993668 -54.3207
2 -12.8041 -3.4246 -53.6386
2 -18.7625 -0.679429 -55.426
1 -19.8349 0.268808 -54.0195
2 -16.0863 -0.288589 -54.215
1 -12.7123 0.916598 -54.4655
2 -21.2357 -3.83374 -51.7031
1 -21.5341 -4.92723 -53.4719
1 -16.6947 -5.33907 -50.9203
2 -18.1602 -4.71292 -52.1989
2 -17.9461 -4.46802 -49.6276
1 -19.3894 -4.00722 -51.076
2 -13.5226 -6.41673 -51.8619
2 -15.5798 -4.64643 -52.2658
1 -13.8476 -4.53132 -52.4766
2 -13.3497 -3.98355 -50.7652
2 -10.717 -5.86731 -51.4621
2 -19.703 -2.25749 -50.172
1 -21.7697 -2.03431 -52.7585
2 -13.0075 -1.31681 -51.4851
2 -10.3995 -2.93492 -52.1585
1 -11.8952 -1.92049 -52.881
2 -10.6043 -0.306986 -53.1628
2 -20.2476 -0.893476 -52.6425
1 -19.1817 -0.729956 -50.992
2 -19.9947 0.690314 -50.1589
2 -18.5665 1.26843 -52.8631
2 -17.3442 -0.459053 -51.1848
1 -16.6217 0.69293 -52.636
2 -15.2238 0.714145 -51.2878
1 -13.4382 0.505785 -51.1863
2 -20.0608 -5.72439 -50.2736
1 -22.1645 -4.39697 -49.8677
2 -20.963 -4.04184 -48.4645
1 -16.6566 -3.53664 -48.5634
1 -13.6191 -5.73847 -49.8892
2 -15.4368 -5.34358 -49.3467
1 -10.4594 -5.83932 -49.5991
2 -12.0743 -5.30056 -48.7071
2 -20.8814 -0.945363 -47.6987
1 -19.93 -2.35319 -48.1835
2 -17.9633 -2.19485 -48.0705
1 -15.8946 -0.510661 -49.7778
2 -15.3951 -2.47857 -49.4199
1 -13.44 -2.3164 -49.8703
1 -10.5595 -1.63184 -48.2279
2 -12.1502 -2.60259 -48.3874
2 -16.4734 0.176464 -48.225
2 -13.9596 -0.452656 -49.255
1 -13.1003 0.480938 -47.9234
2 -11.7177 0.957162 -50.5125
2 -11.3469 0.114165 -47.5443
2 -19.9358 -6.41355 -47.063
1 -16.8623 -6.0908 -45.9537
2 -16.6053 -4.3002 -46.8331
2 -12.8253 -5.93386 -45.9599
2 -13.695 -3.30862 -45.966
1 -15.5751 -3.4404 -45.6083
2 -10.6293 -4.44496 -46.2375
1 -12.3509 -4.25014 -47.1489
1 -21.0493 -0.111113 -46.1039
2 -19.805 -3.30426 -46.2105
2 -16.0802 -1.40792 -45.7737
1 -17.5591 -0.781927 -46.9161
2 -21.7345 1.8286 -45.6775
2 -19.0085 0.463554 -46.5025
2 -14.1916 0.909477 -46.4004
1 -15.641 1.69816 -47.3962
1 -21.2113 -19.7738 -44.6849
2 -16.58 -20.5521 -44.9766
2 -11.0642 -21.9667 -43.1048
2 -22.3402 -15.1155 -44.0067
1 -13.9036 -17.5248 -46.4165
1 -19.0916 -18.5728 -43.7105
2 -12.3037 -17.2474 -45.5093
1 -19.1093 -13.585 -44.7395
1 -15.8927 -14.8792 -45.5127
2 -14.4718 -13.703 -45.1337
1 -10.8518 -15.9786 -45.7874
2 -12.2666 -12.6459 -44.1635
1 -19.7962 -10.9109 -44.2294
2 -16.3457 -10.5854 -46.1061
1 -21.4428 -8.31262 -45.2361
2 -19.8751 -9.10009 -44.5838
2 -17.5415 -7.89325 -45.5212
2 -14.2074 -7.69857 -44.1337
2 -21.0219 -21.2287 -43.331
1 -20.3057 -20.5567 -41.707
2 -18.6052 -20.1313 -42.6721
2 -22.0912 -20.737 -40.8445
1 -17.0881 -21.1096 -43.1666
2 -16.2117 -20.0388 -41.8412
2 -15.0455 24.9773 -41.7247
1 -12.3945 -21.0373 -41.8787
2 -13.136 -19.6787 -42.945
1 24.8639 -17.7993 -42.9048
2 -20.8099 -18.8213 -43.0417
2 -21.723 -16.6009 -41.79
2 -17.7663 -17.4865 -42.9894
1 -16.372 -18.2249 -41.8483
2 -14.8282 -17.1983 -42.1194
1 -13.4715 -18.4161 -41.4896
1 -11.9179 -18.4644 -44.0051
2 -11.7543 -17.5288 -42.4501
2 -22.1839 -12.7827 -42.1365
1 -21.25 -14.8214 -42.4264
2 -19.4544 -14.5401 -43.2143
2 -16.1082 -15.2925 -43.6812
1 -17.8611 -15.5805 -42.8772
1 -15.0935 -15.2648 -41.8642
2 -13.8611 -13.9358 -42.0524
2 -20.9259 -12.2455 -44.9396
2 24.8829 -8.48804 -43.679
1 -20.3623 -9.08782 -39.5552
2 -19.864 -10.9964 -42.2969
1 -16.3239 -10.8489 -44.2102
1 -14.2441 -12.6288 -43.5715
2 -15.8116 -11.9129 -42.688
2 -14.4429 -10.7548 -44.3689
1 -14.9729 -11.1224 -40.946
1 -10.8788 -12.7747 -42.9708
1 -21.4994 -7.63642 -42.3568
2 -17.5881 -9.68593 -43.2385
1 -18.4407 -8.07266 -43.7578
2 -17.401 -6.89104 -42.6838
1 -13.4246 -9.34772 -43.7535
2 -13.7787 -9.66352 -41.835
2 -11.5187 -9.28309 -43.8571
2 -11.4738 -7.60071 -41.6475
2 -19.9847 -19.259 -40.2769
1 -21.4807 -20.1669 -39.1187
2 -20.4089 -21.2921 -37.9504
2 -17.2721 -21.0483 -39.354
1 -18.397 -22.0679 -38.0586
1 -15.6032 -21.1213 -40.4487
2 -13.8743 -20.1283 -40.2889
2 -14.6889 25.1471 -39.2056
1 -13.251 -20.9599 -38.6426
2 -11.209 -20.1722 -40.7171
2 -11.9563 -19.6307 -37.9678
2 -19.7738 -16.6901 -39.3027
1 -20.8503 -17.6208 -40.4131
2 -16.9989 -17.8436 -40.0309
1 -17.4979 -19.1167 -38.6284
2 -12.7097 -17.6263 -39.9615
1 -11.2391 -18.5383 -39.3215
2 -20.5133 -14.1584 -40.7877
1 -19.8186 -14.882 -39.2679
2 -21.9524 -16.0643 -37.3205
2 -16.9085 -15.313 -41.3217
2 -17.9536 -14.61 -38.7821
1 -16.7511 -15.9614 -39.424
2 -15.9467 -12.6895 -39.7256
1 -13.4088 -16.0192 -39.1946
2 -14.9991 -15.3712 -39.8871
1 -12.4656 -13.3467 -40.7397
2 -12.2223 -14.6384 -39.2998
1 -10.5659 -15.1313 -38.456
1 -20.6418 -12.2184 -41.0906
2 -20.8948 -11.1041 -39.5057
1 -18.1671 -10.4529 -41.5644
2 -18.5506 -12.1076 -40.5846
1 -17.6995 -12.736 -39.1195
2 -16.4486 -10.1265 -40.644
2 -13.5565 -11.8966 -39.856
1 -14.6257 -12.493 -38.4431
2 -11.4959 -11.807 -41.309
1 -10.8374 -10.4335 -40.211
2 -22.042 -5.83842 -41.6757
2 -20.2236 -8.94062 -37.5492
1 -21.7316 -9.50633 -36.4756
2 -18.7863 -9.02319 -40.5877
1 -18.5221 -7.06269 -40.9765
2 -16.9501 -7.07095 -39.9431
1 -16.4688 -8.72381 -39.3005
1 -13.1174 -8.28162 -40.8434
2 -14.4641 -8.44773 -39.3662
2 -11.9266 -9.03904 -39.307
1 -10.8308 -7.57112 -38.2387
1 -19.1563 -19.7381 -35.8641
2 24.9289 -21.6559 -35.2726
2 -17.952 -21.0831 -36.5092
2 -14.2053 -20.8802 -36.9245
1 -16.0286 -20.6687 -36.3107
2 -12.2416 -20.5014 -34.6167
2 -21.0577 -19.1241 -36.2207
1 -20.5972 -17.5779 -37.4762
2 -19.0314 -18.7548 -37.5863
2 -16.0251 -19.0332 -37.3379
1 -15.2047 -17.4003 -36.695
1 -12.4486 -19.5466 -36.1197
2 -10.5951 -16.9382 -38.0338
2 -10.8631 -18.5196 -35.6167
2 -19.6052 -16.2145 -36.3947
1 -20.6853 -14.6853 -36.3316
2 -16.7525 -16.4526 -37.5239
1 -17.8806 -16.4905 -35.8889
2 -13.8872 -16.1537 -37.3919
1 -13.1431 -14.7423 -36.5501
2 -11.2755 -14.3523 -36.8445
2 -20.477 -13.7298 -37.9365
1 -21.5843 -12.0982 -38.1798
2 -17.9613 -12.2243 -37.3195
1 -17.8026 -13.2691 -35.7508
1 -16.9045 -10.7838 -36.6999
2 -14.2444 -13.2304 -36.8122
2 -15.0366 -10.7989 -37.4864
1 -14.0365 -11.3938 -35.8754
2 -12.5757 -10.5219 -36.9345
2 -10.6899 -11.7271 -35.4323
1 -10.5187 -10.6245 -36.9903
2 -21.4916 -11.3641 -36.3873
1 -18.614 -8.4722 -36.6321
2 -17.2319 -9.27507 -37.7765
2 -18.1947 -10.0545 -35.4712
1 -13.5791 -9.28895 -37.8889
2 -13.8955 -7.69644 -36.7806
2 -10.4396 -8.58969 -36.6915
1 -20.2321 -4.96364 -45.517
2 -21.643 -6.42959 -45.0734
2 -18.3893 -5.56131 -44.7955
2 -15.4197 -5.41443 -44.7811
1 -13.0754 -3.32168 -44.1592
1 -11.1261 -6.156 -45.4862
2 -21.0059 -1.18297 -44.5719
1 -19.6781 -2.45241 -44.4836
1 -14.6647 -0.342335 -44.7564
2 -20.3829 -4.09348 -43.8081
1 -20.6179 -4.54413 -42.0636
2 -19.699 -7.3632 -42.5706
2 -18.7737 -4.93409 -41.5235
1 -17.4272 -5.00251 -43.1504
2 -15.6805 -4.96341 -42.0649
1 -14.5974 -6.11408 -43.1698
2 -12.9881 -5.07104 -43.5248
1 -11.7515 -5.83528 -42.2678
2 -21.383 -3.00869 -41.1717
2 -16.9631 -3.38778 -44.0878
2 -18.554 -1.39508 -43.4238
1 -16.4917 -1.77538 -43.3708
2 -16.1249 -1.5315 -41.4996
2 -14.4178 -1.95124 -43.6634
2 -12.9441 -0.907745 -41.3152
2 -11.5035 -2.51947 -43.4835
1 -11.7728 -2.21812 -41.7932
2 -20.6965 -0.215687 -41.7164
1 -21.7311 1.47529 -41.6317
2 -16.2557 0.150359 -43.5016
1 -19.0887 0.158213 -42.5611
2 -17.9708 1.19308 -41.5124
2 -13.1702 0.912531 -43.9251
1 -12.6289 0.737937 -42.1019
2 -10.4846 0.633642 -42.0248
2 -19.8569 -7.05276 -39.4965
1 -18.3641 -3.82414 -39.9931
2 -16.5619 -4.19385 -39.7128
1 -15.4938 -5.84268 -40.4712
1 -15.6274 -3.51557 -38.2226
2 -13.9181 -6.72064 -41.4213
2 -14.2555 -5.26166 -39.1127
1 -12.4738 -4.64994 -39.6725
2 -13.1646 -3.46856 -41.086
2 -10.9054 -4.98202 -40.7859
2 -12.0045 -6.11062 -38.3149
2 -21.3988 -1.18677 -38.7867
1 -20.4806 -1.4768 -40.432
2 -19.6003 -4.27948 -38.7209
2 -18.7247 -1.95285 -39.9909
1 -17.7815 -0.919079 -38.6729
1 -14.4297 -2.06295 -40.8566
2 -14.4215 -2.21287 -38.8536
2 -11.7511 -3.37268 -38.4999
1 -16.2111 0.466439 -41.3798
2 -16.6239 0.195383 -39.4074
1 -15.8721 1.43907 -38.2534
2 -14.5029 1.20051 -41.2025
2 -11.8728 -0.183284 -38.4771
1 -19.9342 -5.99776 -38.0295
2 -21.0311 -5.49243 -36.6243
2 -15.7543 -4.87781 -36.9733
2 -18.4511 -6.65493 -36.9465
1 -14.1193 -5.9217 -37.3056
2 -12.956 -5.126 -36.1181
1 -11.3412 -4.56407 -36.9778
1 -20.5847 -1.02142 -37.1696
2 -20.0246 -2.43441 -36.1455
2 -16.7244 -1.77591 -37.2158
1 -12.7234 -1.85406 -37.9865
2 -13.3329 -1.43813 -36.2546
1 -15.0969 -0.820992 -36.0858
2 -11.2875 -3.16876 -35.7973
2 -19.014 -0.0771646 -37.4739
2 -14.5797 0.460982 -37.4429
1 -12.7932 1.18373 -37.5524
2 -12.2513 1.60223 -35.9187
2 -9.87856 -20.8759 -33.6257
2 -16.1619 -17.1636 -34.8354
2 -13.7436 -18.3019 -35.4759
1 -10.1944 -13.6203 -35.5136
2 -14.8508 -9.81139 -34.9077
1 -14.5466 -7.9862 -35.1374
2 -16.3044 -7.13922 -35.1251
2 -21.9209 -19.6863 -33.3081
1 -20.1357 -19.5795 -32.6139
2 -19.6938 -20.7881 -34.2974
2 -16.2497 -20.2355 -34.5477
2 -18.4022 -18.203 -35.0055
2 -18.4672 -18.8344 -32.3599
1 -16.9899 -18.6623 -33.7557
2 -16.0007 -19.0373 -31.9749
1 -13.0764 -21.0358 -31.8158
1 -11.306 -22.0519 -34.2469
2 -11.9154 -19.4259 -32.1002
2 -21.0882 -17.8296 -31.7911
1 24.8558 -17.5974 -32.7826
2 -17.3224 -16.3939 -32.4646
2 -14.5907 -16.5452 -32.8538
1 -13.3341 -17.0211 -34.1192
2 -11.5962 -17.1265 -33.4271
2 -22.1144 -14.7958 -35.1877
2 -19.8673 -15.1876 -33.0245
1 -21.5258 -14.7673 -33.3892
2 -21.9733 -12.6613 -33.3727
2 -17.4129 -14.8972 -34.9761
1 -16.1026 -15.6544 -33.6277
2 -18.2107 -11.7894 -32.7636
2 -15.4305 -13.9781 -33.0884
2 -13.5118 -15.1325 -34.7061
1 -13.6208 -13.7311 -33.4022
2 -12.6382 -13.8026 -31.8618
2 -10.5772 -14.3058 -33.8569
1 -10.8669 -13.1201 -32.2741
2 -22.1674 -8.68488 -34.8809
1 -20.6704 -11.9616 -34.6759
2 -19.6854 -13.4023 -35.2963
1 -16.4875 -12.3126 -33.2079
2 -16.3588 -12.1481 -35.1493
2 -15.0632 -11.4158 -32.2129
2 -13.2127 -12.1867 -34.3731
1 -11.7382 -10.9572 -34.1535
2 -10.9476 -11.228 -32.4838
1 -21.9053 -9.44473 -33.0821
2 -21.7303 -7.6672 -32.4063
1 -17.1538 -7.35403 -33.4717
2 -20.3528 -10.2861 -33.7598
1 -18.4889 -9.80846 -33.6003
2 -16.8684 -9.17782 -32.9025
2 -13.7012 -6.96301 -33.8696
2 -12.3315 -9.27275 -34.3084
1 -10.9576 -8.13912 -34.8389
2 -11.0996 -7.96665 -32.2969
2 -20.6271 -21.86 -27.8154
2 -20.0536 -20.7755 -31.1738
1 -21.1563 -20.7611 -29.5791
2 -20.3314 -19.1591 -29.199
2 -16.879 -19.9314 -29.7067
1 -15.8406 -21.0342 -30.9606
1 -13.3596 -21.1603 -28.804
2 -14.0858 -20.1551 -30.3261
2 -15.7584 24.6302 -29.8605
2 -20.4004 -15.3606 -30.327
1 -20.5101 -17.3025 -30.0166
2 -18.6013 -16.9824 -30.2956
1 -18.7825 -15.5403 -31.559
1 -17.4514 -18.4002 -30.7639
1 -15.4468 -16.4756 -28.3957
2 -15.8663 -17.2787 -30.054
1 -14.6728 -17.6811 -31.382
2 -13.0429 -16.8515 -30.8211
1 -12.1502 -16.5453 -28.8264
1 -11.4602 -17.6033 -31.551
2 -11.0991 -17.854 -29.7066
1 -21.8186 -12.2339 -31.4192
2 24.5042 -13.4623 -30.709
2 -17.728 -14.121 -30.8275
1 -20.5335 -13.9796 -29.149
2 -16.9098 -12.095 -29.6653
1 -18.4423 -12.3756 -30.943
2 -15.0461 -14.673 -29.7108
1 -13.4541 -13.9135 -30.0755
2 -12.0136 -14.7165 -29.1907
2 -20.1837 -12.8823 -30.789
2 -21.6931 -10.4169 -31.2577
1 -20.8703 -10.3701 -29.5358
2 -19.0498 -10.6499 -30.2027
2 -16.1428 -9.64084 -29.7511
1 -15.3162 -11.2373 -30.2476
2 -13.7169 -11.9653 -29.5793
2 -10.5797 -12.3679 -29.1051
1 -21.9652 -6.24812 -31.0077
2 24.3849 -10.3059 -29.0085
2 -17.8269 -7.72311 -30.2255
1 -18.0822 -9.37031 -29.3621
1 -14.957 -9.74118 -33.0884
1 -12.9013 -7.51365 -32.1394
2 -14.3224 -8.59469 -31.7727
2 -16.2233 -6.64539 -32.0643
2 -12.6142 -7.01202 -30.0808
1 -10.9605 -7.79704 -29.6001
2 -21.0764 -19.1527 -26.2311
2 24.1474 -21.0991 -27.7273
2 -17.6559 -20.9148 -27.0614
1 -16.4467 -19.8607 -27.8594
2 -12.8199 -21.5414 -25.8132
2 -14.4636 -20.1313 -27.6427
1 -11.3071 -20.7608 -26.7268
1 -20.2094 -18.2863 -27.5129
2 -21.3093 -16.9946 -28.4102
2 -19.489 -16.3098 -25.715
2 -18.4508 -18.0779 -27.4055
1 -17.46 -17.456 -25.9719
2 -16.7842 -15.402 -27.6789
2 -15.9103 -18.1299 -27.1713
1 -13.8024 -18.5418 -26.5448
2 -13.6856 -17.0589 -27.8349
2 -11.8019 -18.9458 -26.3505
1 -11.8748 -15.778 -25.4707
1 -19.3136 -14.5436 -26.2452
2 -19.0536 -14.1235 -27.9915
2 -16.0921 -12.9608 -27.489
1 -16.723 -13.9381 -29.0133
2 -12.4403 -12.695 -27.0559
2 -11.1073 -16.3276 -27.2005
1 -10.8519 -13.8525 -27.8906
2 -19.1406 -11.3702 -26.4604
1 -20.805 -11.8882 -26.6081
2 -21.0604 -12.0456 -28.4804
1 -18.7792 -9.60718 -26.409
2 -17.4154 -8.98096 -27.5286
2 -14.3862 -10.1533 -27.0865
1 -13.0248 -11.1063 -28.0588
2 -11.6605 -9.81017 -27.8787
1 -21.0972 -7.53881 -28.1324
2 -22.4435 -7.99773 -26.7621
2 -20.0103 -9.02658 -28.4332
2 -19.9157 -8.32352 -25.5476
1 -15.6026 -8.71162 -27.7592
2 -15.0401 -7.2323 -29.0157
2 -14.7984 -7.80806 -26.1757
1 -14.4729 -5.91709 -26.1278
2 -10.4435 -7.34 -27.8836
1 -10.5144 -8.73931 -26.5924
2 -12.0417 -8.38169 -25.5637
2 -9.88668 -21.5406 -25.9415
1 -16.322 -14.3163 -26.1369
1 -13.2965 -12.7423 -25.4678
1 -13.727 -9.22543 -25.4625
1 -20.1193 -4.25791 -35.6305
1 -17.1432 -5.64883 -36.0149
2 -18.1541 -4.12892 -35.703
1 -17.4679 -2.27246 -35.5696
2 -18.8847 1.46346 -35.197
2 -20.3055 -4.8925 -33.8666
1 -20.2393 -6.67241 -33.1117
2 -18.9415 -7.86107 -33.9015
2 -16.5444 -3.6943 -32.5474
1 -12.7532 -5.32254 -34.2213
2 -10.7784 -6.25651 -34.5035
1 -10.3047 -6.07799 -32.1977
2 -12.3591 -5.53796 -32.2777
2 -21.4965 -0.161036 -35.7867
2 -21.3823 -2.1915 -33.3095
1 -20.4922 -1.09323 -34.3491
2 -18.5156 -1.48956 -34.1909
1 -17.9112 -1.77817 -32.3626
2 -13.0826 -3.50848 -33.5506
2 -16.0856 -1.21515 -32.2086
2 -15.5969 -2.31779 -34.8258
1 -14.984 -2.74116 -32.9301
1 -12.4925 -2.01083 -34.6576
2 -10.9102 -0.914747 -34.6267
2 -20.4885 0.448174 -33.0858
2 -13.4378 -0.735026 -33.3504
2 -15.6902 0.508308 -34.8652
1 -15.2095 0.186486 -33.1479
2 -10.7105 0.50671 -32.1454
1 -12.2969 -0.555087 -31.8267
1 -18.9347 -6.33277 -29.9549
2 -20.078 -5.88203 -31.3083
1 -20.7812 -3.68031 -32.4775
2 -19.8697 -6.11444 -28.2347
1 -15.8005 -7.9012 -30.5707
2 -17.7065 -4.94953 -29.9006
1 -18.4488 -3.20201 -29.9219
1 -13.6915 -5.78375 -29.0706
2 -15.0562 -4.6878 -29.8507
2 -10.2216 -4.34973 -31.526
2 -12.3334 -4.2704 -29.4906
1 -12.3605 -3.76495 -31.3785
2 -20.136 -3.29434 -29.0023
2 -22.2448 -4.46208 -31.5613
1 -20.5351 -1.43815 -28.4937
2 -21.1506 -0.268324 -29.7827
2 -19.0943 -2.98856 -31.6412
2 -16.8474 -2.34095 -29.4102
2 -13.9533 -2.60578 -31.1287
1 -15.0234 -2.81816 -29.5872
2 -11.3198 -2.12528 -31.5334
1 -20.0926 0.460274 -31.2566
1 -17.3618 -0.303575 -29.5924
2 -18.297 -0.232335 -31.1795
2 -16.092 1.16541 -29.4745
2 -13.1278 0.6267 -30.491
2 -10.5466 0.925825 -29.2818
2 -21.099 -4.53045 -26.1171
2 -22.2517 -7.15484 -29.4745
1 24.5075 -4.975 -25.6599
2 -16.1828 -5.56609 -26.7345
2 -18.4904 -3.54813 -26.6849
2 -13.0352 -5.78685 -27.3593
1 -11.1772 -5.68719 -27.247
2 -11.4036 -3.39639 -26.6375
1 -19.985 -4.37468 -27.4731
2 -21.3943 -1.49061 -26.8703
2 -18.7428 -0.461141 -25.5069
1 -17.6365 -1.74199 -26.5896
2 -16.4364 -0.386511 -27.0906
1 -14.6009 -1.25796 -26.5626
2 -14.1837 -2.55553 -27.8992
2 -11.7222 -1.14188 -28.5413
1 -12.282 -2.81587 -28.222
2 -20.7187 1.29849 -27.2773
1 -18.9241 0.849197 -27.0205
2 -18.684 -0.788913 -28.2451
2 -13.9362 0.349667 -27.3161
2 -10.8688 1.00931 -25.6179
1 -12.4821 0.533779 -28.6157
2 -13.1181 -1.25641 -25.3466
1 -21.5136 -19.4623 -24.5676
2 -19.2763 -20.0615 -24.1895
1 -18.5363 -21.2473 -25.5422
2 -17.1113 -18.6282 -24.4881
2 -16.8298 -21.6361 -24.6638
1 -15.8827 -20.114 -24.0295
2 -14.4333 -19.303 -24.804
1 -12.8342 -20.9054 -24.073
2 -11.3833 -21.733 -23.2823
2 -12.0737 -19.2674 -23.3376
2 -21.2043 -17.8209 -23.5161
1 -20.843 -16.3116 -24.5125
1 -18.3461 -18.8044 -23.0528
1 -16.3841 -16.4098 -23.2943
2 -17.9625 -17.0438 -22.4163
2 -16.6096 -16.0395 -25.0905
1 -13.3309 -17.8227 -23.5572
2 -13.334 -16.9455 -25.2094
2 -14.7762 -17.4205 -22.5428
2 -12.18 -16.4673 -22.6634
2 -20.8191 -14.9729 -23.2219
2 -21.0883 -13.62 -25.7352
1 -21.7201 -13.3337 -23.8274
2 -17.9581 -13.601 -25.2669
2 -14.8979 -13.5803 -25.0979
1 -15.2772 -13.3005 -23.2727
2 -13.6045 -13.3237 -22.5149
2 -12.1237 -14.1003 -24.6911
1 -12.1926 -14.5722 -22.802
2 -19.9006 -12.1849 -23.6653
2 -17.6716 -10.0924 -24.8339
1 -18.1967 -11.9304 -24.437
2 -12.9416 -11.0491 -24.6555
1 -12.0204 -10.7398 -23.1055
2 -21.7234 -9.37307 -23.4489
1 -19.1728 -7.41367 -24.1686
2 24.7824 -6.48938 -24.52
2 -17.2446 -7.34326 -24.0625
1 -16.4474 -9.08367 -23.8731
2 -14.62 -9.07019 -23.7826
2 -12.6778 -6.6587 -23.5917
2 -11.8571 -8.86574 -22.8603
1 -11.0011 -7.47583 -24.1265
1 -20.0774 -21.1276 -22.8085
2 -22.3095 -19.9541 -21.1176
2 -19.7329 -19.2475 -21.5796
1 -22.0816 -21.6758 -20.4818
2 -16.8788 -19.8216 -22.2583
1 -17.2218 -21.1505 -21.1176
2 -14.4175 -21.0442 -23.0195
1 -14.1526 -21.9074 -21.4213
2 -10.9689 -20.7432 -20.8556
1 -21.55 -18.2092 -21.7186
2 -20.875 -16.8496 -20.6183
1 -14.5278 -17.4547 -20.6688
1 -17.7614 -16.4153 -20.6471
2 -16.002 -16.0566 -20.4722
2 -18.3362 -17.4453 -19.1105
2 -13.7739 -16.307 -19.3123
2 -12.6746 -18.3602 -20.7972
1 -11.1722 -17.3309 -21.2642
2 -10.573 -16.1182 -19.7858
1 -20.6325 -15.0386 -21.3302
2 -20.6993 -13.2057 -20.7646
2 -18.8297 -14.8326 -20.5679
1 -18.4914 -13.2012 -19.7804
2 -16.3422 -14.6449 -22.8248
1 -15.44 -14.5743 -19.3981
2 -13.842 -13.4066 -19.4639
1 -12.3406 -15.1543 -19.2123
2 -11.8922 -14.1976 -20.7847
1 -20.1894 -11.7362 -21.9051
2 -20.5812 -10.1757 -20.8853
2 -16.5347 -11.9144 -23.3682
2 -18.4488 -11.7643 -20.9655
1 -16.8306 -11.2526 -21.5753
2 -13.4967 -10.7115 -21.611
1 -12.8999 -12.2868 -20.7961
2 -15.6676 -10.8843 -20.2785
2 -11.1971 -11.8935 -21.9383
2 -19.3737 -7.94744 -22.4087
1 -21.0504 -8.65658 -21.8763
2 -21.2246 -7.34023 -20.5635
2 -16.9181 -9.42016 -22.0431
1 -17.8553 -8.05336 -21.1738
1 -13.5967 -7.96692 -22.621
2 -13.7141 -7.83529 -20.6977
2 -10.0167 -9.87044 -19.647
2 -20.7269 -18.9801 -18.6274
1 -22.1388 23.7286 -17.9604
2 -20.286 23.4192 -17.3324
2 -17.9685 -20.5021 -19.4091
1 -19.1758 -19.0604 -19.7062
2 -19.8285 -20.8901 -16.8489
2 -15.7625 -21.1767 -17.6945
2 -13.6619 -20.9663 -19.6958
1 -14.8697 -19.7522 -18.5883
2 -11.4214 -20.1426 -18.0461
2 24.8239 -20.1791 -16.2849
2 -18.5698 -15.7773 -16.5189
2 -15.5447 -18.7671 -19.9293
1 -12.2272 -19.7626 -19.6994
2 -13.545 -18.5201 -17.6344
2 -15.8345 -15.5806 -17.8278
2 -11.3636 -17.1151 -17.0838
1 -11.8577 -18.9986 -16.516
2 -21.3017 -15.6656 -17.9248
1 -19.8644 -14.6362 -17.1968
2 -19.2896 -13.0273 -18.08
2 -16.693 -13.2585 -19.346
1 -15.8661 -13.0543 -15.8786
2 -17.2823 -11.9206 -15.6762
2 -12.2515 -14.5227 -17.5906
1 -11.9808 -15.5963 -15.9693
2 -20.5986 -10.4929 -17.5417
1 -19.1855 -11.536 -16.9373
2 -17.8393 -10.7337 -18.1347
1 -16.0452 -11.4936 -18.6272
2 -14.8838 -12.2882 -17.2665
2 -14.7951 -9.85568 -18.3038
2 -12.5579 -11.2023 -19.155
1 -13.0847 -12.5811 -17.7801
2 -11.6094 -11.7902 -16.7526
1 -21.1691 -7.2594 -16.4927
1 -21.2934 -10.6747 -19.3065
2 24.7938 -6.95253 -17.5728
2 -14.681 -7.56469 -16.4799
2 -16.5022 -8.02505 -19.6159
1 -17.6296 -8.86585 -18.4253
2 -12.1994 -5.6433 -18.3887
1 -14.085 -9.67851 -20.077
1 -10.4215 -8.12091 -16.2686
2 -12.1349 -8.96071 -17.2049